
Running Job 1 of 1 o2.inp
qchem o2.inp_120579.0 /home/c.fioriglio/Desktop/qchem_test/SCRATCH_FOLDER/qchem120579/ 1
/opt/qchem/exe/qcprog.exe_s o2.inp_120579.0 /home/c.fioriglio/Desktop/qchem_test/SCRATCH_FOLDER/qchem120579/
                  Welcome to Q-Chem
     A Quantum Leap Into The Future Of Chemistry


 Q-Chem 6.3, Q-Chem, Inc., Pleasanton, CA (2025)

 E. Epifanovsky,  A. T. B. Gilbert,  Xintian Feng,  Joonho Lee,  Yuezhi Mao,  
 N. Mardirossian,  P. Pokhilko,  A. White,  M. Wormit,  M. P. Coons,  
 A. L. Dempwolff,  Zhengting Gan,  D. Hait,  P. R. Horn,  L. D. Jacobson,  
 I. Kaliman,  J. Kussmann,  A. W. Lange,  Ka Un Lao,  D. S. Levine,  Jie Liu,  
 S. C. McKenzie,  A. F. Morrison,  K. D. Nanda,  F. Plasser,  D. R. Rehn,  
 M. L. Vidal,  Zhi-Qiang You,  Ying Zhu,  Huseyin Aksu,  B. Alam,  
 B. Albrecht,  A. Aldossary,  E. Alguire,  J. H. Andersen,  
 J. E. Arias-Martinez,  V. Athavale,  F. Ballesteros,  D. Barton,  K. Begam,  
 A. Behn,  N. Bellonzi,  Y. A. Bernard,  E. J. Berquist,  H. Burton,  
 S. Camps,  A. Carreras,  K. Carter-Fenk,  Mathew Chow,  Romit Chakraborty,  
 Chandrima Chakravarty,  Junhan Chen,  A. D. Chien,  K. D. Closser,  
 V. Cofer-Shabica,  L. Cunha,  S. Dasgupta,  Jia Deng,  Joseph Dickinson,  
 M. de Wergifosse,  M. Diedenhofen,  L. B. Dittmer,  Hainam Do,  Wenjie Dou,  
 S. Ehlert,  Po-Tung Fang,  S. Fatehi,  Qingguo Feng,  Jonathan Fetherolf,  
 T. Friedhoff,  Thomas Froitzheim,  Sarai Folkestad,  B. Ganoe,  J. Gayvert,  
 Qinghui Ge,  G. Gidofalvi,  M. Gimferrer,  G. Giudetti,  M. Goldey,  
 Montgomery Gray,  J. Gomes,  C. Gonzalez-Espinoza,  S. Gulania,  A. Gunina,  
 J. A. Gyamfi,  M. W. D. Hanson-Heine,  P. H. P. Harbach,  A. W. Hauser,  
 M. F. Herbst,  M. Hernandez Vera,  M. Hodecker,  Z. C. Holden,  S. Houck,  
 Xunkun Huang,  Kerwin Hui,  B. C. Huynh,  K. Ikeda,  M. Ivanov,  
 Nayanthara K. Jayadev,  Hyunjun Ji,  Zuxin Jin,  Hanjie Jiang,  
 Subrata Jana,  B. Kaduk,  S. Kaehler,  R. Kang,  Richard Kang,  
 K. Khistyaev,  Jaehoon Kim,  Yongbin Kim,  P. Klunzinger,  Z. Koczor-Benda,  
 Joong Hoon Koh,  D. Kosenkov,  Saikiran Kotaru,  L. Koulias,  T. Kowalczyk,  
 C. M. Krauter,  K. Kue,  A. Kunitsa,  T. Kus,  A. Landau,  C. W. Lander,  
 K. V. Lawler,  D. Lefrancois,  S. Lehtola,  Rain Li,  Shaozhi Li,  
 Tao E. Li,  Yi-Pei Li,  Jiashu Liang,  M. Liebenthal,  Hung-Hsuan Lin,  
 You-Sheng Lin,  Fenglai Liu,  Kuan-Yu Liu,  Xiao Liu,  M. Loipersberger,  
 A. Luenser,  C. Malbon,  Aniket Mandal,  Manisha,  A. Manjanath,  
 P. Manohar,  E. Mansoor,  S. F. Manzer,  Shan-Ping Mao,  A. V. Marenich,  
 T. Markovich,  S. Mason,  F. Matz,  S. A. Maurer,  Samuel May,  
 Alexandra McIsaac,  P. F. McLaughlin,  M. F. S. J. Menger,  J.-M. Mewes,  
 S. A. Mewes,  R. E. Moorby,  P. Morgante,  Mohammad Mostafanejad,  
 Madhubani Mukherjee,  J. W. Mullinax,  Quyen Nguyen,  Avik Kumar Ojha,  
 K. J. Oosterbaan,  Eno Paenurk,  Xiaoliang Pan,  G. Paran,  V. Parravicini,  
 R. L. Patterson,  Alexander C. Paul,  Suranjan K. Paul,  F. Pavosevic,  
 Zheng Pei,  P. Pokhilko,  S. Prager,  E. I. Proynov,  E. Ramos,  B. Rana,  
 A. E. Rask,  A. Rettig,  R. M. Richard,  F. Rob,  E. Rossomme,  S. Roy,  
 T. Scheele,  M. Scheurer,  M. Schneider,  P. E. Schneider,  Tim K. Schramm,  
 N. Sergueev,  S. M. Sharada,  Hengyuan Shen,  W. Skomorowski,  D. W. Small,  
 C. J. Stein,  Alistair J. Sterling,  Yingli Su,  Yu-Chuan Su,  
 E. J. Sundstrom,  J. Talbot,  J. A. Tan,  Zhen Tao,  Hung-Hsuan Teh,  
 J. Thirman,  C. Titeca,  N. Tkachenko,  Hung-Yi Tsai,  T. Tsuchimochi,  
 N. M. Tubman,  C. Utku,  S. P. Veccham,  O. Vydrov,  Z. Wang,  Rahel Weiss,  
 J. Wenzel,  Jonathan Wong,  J. Witte,  H. Wu,  Yanze Wu,  A. Yamada,  
 Chou-Hsun Yang,  Kun Yao,  S. Yeganeh,  S. R. Yost,  Qi Yu,  A. Zech,  
 F. Zeller,  Chongxiao Zhao,  T. Zhao,  Igor Ying Zhang,  Xing Zhang,  
 Yu Zhang,  D. Zuev,  A. Aspuru-Guzik,  A. T. Bell,  N. A. Besley,  
 K. B. Bravaya,  B. R. Brooks,  D. Casanova,  Jeng-Da Chai,  Hsing-Ta Chen,  
 S. Coriani,  C. J. Cramer,  A. E. DePrince, III,  R. A. DiStasio Jr.,  
 A. Dreuw,  B. D. Dunietz,  T. R. Furlani,  W. A. Goddard III,  S. Grimme,  
 S. Hammes-Schiffer,  T. Head-Gordon,  W. J. Hehre,  Chao-Ping Hsu,  
 T.-C. Jagau,  Yousung Jung,  A. Klamt,  Jing Kong,  D. S. Lambrecht,  
 Xiangyuan Li,  WanZhen Liang,  N. J. Mayhall,  C. W. McCurdy,  J. B. Neaton,  
 T. Neudecker,  C. Ochsenfeld,  J. A. Parkhill,  R. Peverati,  
 V. A. Rassolov,  Haisheng Ren,  Yihan Shao,  L. V. Slipchenko,  
 R. P. Steele,  J. E. Subotnik,  A. J. W. Thom,  A. Tkatchenko,  
 D. G. Truhlar,  T. Van Voorhis,  Fan Wang,  T. A. Wesolowski,  K. B. Whaley,  
 H. L. Woodcock III,  P. M. Zimmerman,  S. Faraji,  P. M. W. Gill,  
 M. Head-Gordon,  J. M. Herbert,  A. I. Krylov

 Contributors to earlier versions of Q-Chem not listed above: 
 R. D. Adamson,  B. Austin,  R. Baer,  J. Baker,  G. J. O. Beran,  
 K. Brandhorst,  S. T. Brown,  E. F. C. Byrd,  Arup K. Chakraborty,  
 G. K. L. Chan,  Chun-Min Chang,  Yunqing Chen,  C.-L. Cheng,  
 Siu Hung Chien,  D. M. Chipman,  D. L. Crittenden,  H. Dachsel,  
 R. J. Doerksen,  A. D. Dutoi,  R. G. Edgar,  J. Fosso-Tande,  
 L. Fusti-Molnar,  D. Ghosh,  A. Ghysels,  A. Golubeva-Zadorozhnaya,  
 J. Gonthier,  M. S. Gordon,  S. R. Gwaltney,  G. Hawkins,  J. E. Herr,  
 A. Heyden,  S. Hirata,  E. G. Hohenstein,  G. Kedziora,  F. J. Keil,  
 C. Kelley,  Jihan Kim,  R. A. King,  R. Z. Khaliullin,  P. P. Korambath,  
 W. Kurlancheek,  A. Laurent,  A. M. Lee,  M. S. Lee,  S. V. Levchenko,  
 Ching Yeh Lin,  D. Liotard,  E. Livshits,  R. C. Lochan,  I. Lotan,  
 L. A. Martinez-Martinez,  P. E. Maslen,  N. Nair,  D. P. O'Neill,  
 D. Neuhauser,  E. Neuscamman,  C. M. Oana,  R. Olivares-Amaya,  R. Olson,  
 T. M. Perrine,  B. Peters,  P. A. Pieniazek,  A. Prociuk,  Y. M. Rhee,  
 J. Ritchie,  M. A. Rohrdanz,  E. Rosta,  N. J. Russ,  H. F. Schaefer III,  
 M. W. Schmidt,  N. E. Schultz,  S. Sharma,  N. Shenvi,  C. D. Sherrill,  
 A. C. Simmonett,  A. Sodt,  T. Stein,  D. Stuck,  K. S. Thanthiriwatte,  
 V. Vanovschi,  L. Vogt,  Tao Wang,  A. Warshel,  M. A. Watson,  
 C. F. Williams,  Q. Wu,  X. Xu,  Jun Yang,  W. Zhang,  Yan Zhao

   Please cite Q-Chem as follows:
  "Software for the frontiers of quantum chemistry:
   An overview of developments in the Q-Chem 5 package"
   J. Chem. Phys. 155, 084801 (2021)
   https://doi.org/10.1063/5.0055522 (open access)

 Q-Chem 6.3.0 for Intel X86 EM64T Linux

 Parts of Q-Chem use Armadillo 12.8.2 (Cortisol Injector).
 http://arma.sourceforge.net/

 Q-Chem begins on Mon Jun  2 15:53:43 2025  

 Host: 
0

     Scratch files written to /home/c.fioriglio/Desktop/qchem_test/SCRATCH_FOLDER/qchem120579//
 May2125 |scratch|qcdevops|jenkins|workspace|build_RNUM -1
 Processing $rem in /opt/qchem/config/preferences:
 Processing $rem in /home/c.fioriglio/.qchemrc:
 Core orbitals will be frozen

 Checking the input file for inconsistencies... 	...done.

--------------------------------------------------------------
User input:
--------------------------------------------------------------
$rem
JOBTYPE = SP
BASIS = aug-cc-pVDZ
CCMAN2 = 1
CC_DO_DYSON = 1
CC_TRANS_PROP = 1
METHOD = EOM-CCSD
PRINT_GENERAL_BASIS = 1
PURECART = 111
IP_STATES = [0,0,0,1,0,0,0,0]
SCF_CONVERGENCE = 5
$end

$comment
Title
$end

$molecule
-1 2
O       1.35 0 0
O       0 0 0
$end
--------------------------------------------------------------
 ----------------------------------------------------------------
             Standard Nuclear Orientation (Angstroms)
    I     Atom           X                Y                Z
 ----------------------------------------------------------------
    1      O       0.0000000000     0.0000000000     0.6750000000
    2      O       0.0000000000     0.0000000000    -0.6750000000
 ----------------------------------------------------------------
 Molecular Point Group                 D2h   NOp =  8
 Largest Abelian Subgroup              D2h   NOp =  8
 Nuclear Repulsion Energy =          25.08691963 hartrees
 There are        9 alpha and        8 beta electrons

 Q-Chem warning in module forms1/BasisType.C, line 3008:

 You are not using the predefined 5D/6D in this basis set.

 Requested basis set is aug-cc-pVDZ
 Basis set in general basis input format:
-----------------------------------------------------------------------
$basis
O    0
S    8    1.000000
   1.17200000E+04    7.10000000E-04 
   1.75900000E+03    5.47000000E-03 
   4.00800000E+02    2.78370000E-02 
   1.13700000E+02    1.04800000E-01 
   3.70300000E+01    2.83062000E-01 
   1.32700000E+01    4.48719000E-01 
   5.02500000E+00    2.70952000E-01 
   1.01300000E+00    1.54580000E-02 
S    8    1.000000
   1.17200000E+04   -1.60000000E-04 
   1.75900000E+03   -1.26300000E-03 
   4.00800000E+02   -6.26700000E-03 
   1.13700000E+02   -2.57160000E-02 
   3.70300000E+01   -7.09240000E-02 
   1.32700000E+01   -1.65411000E-01 
   5.02500000E+00   -1.16955000E-01 
   1.01300000E+00    5.57368000E-01 
S    1    1.000000
   3.02300000E-01    1.00000000E+00 
S    1    1.000000
   7.89600000E-02    1.00000000E+00 
P    3    1.000000
   1.77000000E+01    4.30180000E-02 
   3.85400000E+00    2.28913000E-01 
   1.04600000E+00    5.08728000E-01 
P    1    1.000000
   2.75300000E-01    1.00000000E+00 
P    1    1.000000
   6.85600000E-02    1.00000000E+00 
D    1    1.000000
   1.18500000E+00    1.00000000E+00 
D    1    1.000000
   3.32000000E-01    1.00000000E+00 
****
O    0
S    8    1.000000
   1.17200000E+04    7.10000000E-04 
   1.75900000E+03    5.47000000E-03 
   4.00800000E+02    2.78370000E-02 
   1.13700000E+02    1.04800000E-01 
   3.70300000E+01    2.83062000E-01 
   1.32700000E+01    4.48719000E-01 
   5.02500000E+00    2.70952000E-01 
   1.01300000E+00    1.54580000E-02 
S    8    1.000000
   1.17200000E+04   -1.60000000E-04 
   1.75900000E+03   -1.26300000E-03 
   4.00800000E+02   -6.26700000E-03 
   1.13700000E+02   -2.57160000E-02 
   3.70300000E+01   -7.09240000E-02 
   1.32700000E+01   -1.65411000E-01 
   5.02500000E+00   -1.16955000E-01 
   1.01300000E+00    5.57368000E-01 
S    1    1.000000
   3.02300000E-01    1.00000000E+00 
S    1    1.000000
   7.89600000E-02    1.00000000E+00 
P    3    1.000000
   1.77000000E+01    4.30180000E-02 
   3.85400000E+00    2.28913000E-01 
   1.04600000E+00    5.08728000E-01 
P    1    1.000000
   2.75300000E-01    1.00000000E+00 
P    1    1.000000
   6.85600000E-02    1.00000000E+00 
D    1    1.000000
   1.18500000E+00    1.00000000E+00 
D    1    1.000000
   3.32000000E-01    1.00000000E+00 
****
$end
-----------------------------------------------------------------------
 There are 18 shells and 46 basis functions
 Total memory of 8000 MB is distributed as follows: 
   MEM_STATIC is set to 192 MB
   QALLOC/CCMAN JOB total memory use is  7808 MB
 Warning: actual memory use might exceed 8000 MB

 Total QAlloc Memory Limit   8000 MB
 Mega-Array Size       188 MB
 MEM_STATIC part       192 MB


                       Distance Matrix (Angstroms)
             O (  1)
   O (  2)  1.350000
 
 A cutoff of  1.0D-14 yielded    171 shell pairs
 There are      1139 function pairs (      1353 Cartesian)
 Smallest overlap matrix eigenvalue = 1.31E-03

 Scale SEOQF with 1.000000e-01/1.000000e-01/1.000000e-01

 Standard Electronic Orientation quadrupole field applied
 Nucleus-field energy     =    -0.0000000008 hartrees
 Guess from superposition of atomic densities
 Warning:  Energy on first SCF cycle will be non-variational
 SAD guess density has 16.000000 electrons

 -----------------------------------------------------------------------
  General SCF calculation program by
  Eric Jon Sundstrom, Paul Horn, Yuezhi Mao, Dmitri Zuev, Alec White,
  David Stuck, Shaama M.S., Shane Yost, Joonho Lee, David Small,
  Daniel Levine, Susi Lehtola, Hugh Burton, Evgeny Epifanovsky,
  Bang C. Huynh
 -----------------------------------------------------------------------
 Hartree-Fock
 A unrestricted SCF calculation will be
 performed using DIIS
 SCF converges when DIIS error is below 1.0e-05
 User-specified cutoff of 10e-14
 used for neglect of 2-electron integrals.
 A cutoff of 10e-14
 used for neglect of overlap integrals.
 Incremental Fock algorithm is on at the start.
 ---------------------------------------
  Cycle       Energy         DIIS error
 ---------------------------------------
    1    -149.2008614466      3.00e-02  
    2    -149.5783207174      4.90e-03  
    3    -149.6063365191      1.97e-03  
    4    -149.6103939638      7.12e-04  
    5    -149.6115870338      2.96e-04  
    6    -149.6118769382      1.06e-04  
    7    -149.6119260274      2.49e-05  
    8    -149.6119285124      8.51e-06  Convergence criterion met
 ---------------------------------------
 SCF time:   CPU 0.37s  wall 0.00s 
<S^2> =          0.792671893
 SCF   energy =  -149.61192851
 Total energy =  -149.61192851


 ------------------------------------------------------------------------------

   CCMAN2: suite of methods based on coupled cluster
           and equation of motion theories.

   Components:
   * libvmm-1.3-trunk
     by Evgeny Epifanovsky, Ilya Kaliman.
   * libtensor-2.5-trunk
     by Evgeny Epifanovsky, Michael Wormit, Dmitry Zuev, Sam Manzer, 
        Ilya Kaliman.
   * libcc-2.5-trunk
     by Evgeny Epifanovsky, Arik Landau, Tomasz Kus, Kirill Khistyaev, 
        Dmitry Zuev, Prashant Manohar, Xintian Feng, Anna Krylov, 
        Matthew Goldey, Alec White, Thomas Jagau, Kaushik Nanda, 
        Anastasia Gunina, Alexander Kunitsa, Joonho Lee.

   CCMAN original authors:
   Anna I. Krylov, C. David Sherrill, Steven R. Gwaltney,
   Edward F. C. Byrd (2000)
   Sergey V. Levchenko, Lyudmila V. Slipchenko, Tao Wang,
   Ana-Maria C. Cristian (2003)
   Piotr A. Pieniazek, C. Melania Oana, Evgeny Epifanovsky (2007)
   Prashant Manohar (2009)

 ------------------------------------------------------------------------------


 Allocating and initializing 7808MB of RAM...
 Calculation will run on 1 core.

 
 Alpha MOs, Unrestricted
 -- Occupied --                  
-20.335 -20.334  -1.190  -0.821  -0.393  -0.338  -0.317  -0.187
  1 Ag    1 B1u   2 Ag    2 B1u   1 B3u   1 B2u   3 Ag    1 B2g                
 -0.126
  1 B3g                                                                        
 -- Virtual --                   
  0.301   0.386   0.405   0.412   0.437   0.444   0.494   0.605
  3 B1u   4 Ag    2 B3u   2 B2u   2 B2g   2 B3g   5 Ag    4 B1u                
  0.727   1.159   1.159   1.313   1.332   1.339   1.440   1.440
  5 B1u   6 Ag    1 B1g   3 B3u   3 B2u   7 Ag    6 B1u   1 Au                 
  1.533   1.560   1.568   1.594   1.632   1.657   1.932   1.992
  3 B2g   3 B3g   7 B1u   4 B3u   4 B2u   8 B1u   8 Ag    4 B2g                
  2.017   2.611   3.553   3.621   3.654   3.786   3.788   3.862
  4 B3g   9 Ag   10 Ag    5 B3u   5 B2u   2 B1g  11 Ag    9 B1u                
  3.895   3.895   4.159   4.197   4.562
 10 B1u   2 Au    5 B2g   5 B3g  11 B1u                                        
 
 Beta MOs, Unrestricted
 -- Occupied --                  
-20.307 -20.306  -1.111  -0.710  -0.309  -0.289  -0.143  -0.089
  1 Ag    1 B1u   2 Ag    2 B1u   1 B2u   3 Ag    1 B3u   1 B3g                
 -- Virtual --                   
  0.303   0.358   0.389   0.414   0.426   0.447   0.488   0.520
  3 B1u   1 B2g   4 Ag    2 B2u   2 B3u   2 B3g   5 Ag    2 B2g                
  0.618   0.755   1.164   1.164   1.329   1.337   1.343   1.460
  4 B1u   5 B1u   1 B1g   6 Ag    3 B2u   3 B3u   7 Ag    1 Au                 
  1.461   1.569   1.581   1.610   1.648   1.669   1.714   1.954
  6 B1u   3 B3g   7 B1u   3 B2g   4 B2u   8 B1u   4 B3u   8 Ag                 
  2.023   2.041   2.630   3.582   3.662   3.670   3.847   3.847
  4 B3g   4 B2g   9 Ag   10 Ag    5 B2u   5 B3u   2 B1g  11 Ag                 
  3.881   3.960   3.960   4.209   4.224   4.590
  9 B1u   2 Au   10 B1u   5 B3g   5 B2g  11 B1u                                

 Occupation and symmetry of molecular orbitals

 Point group: D2h (8 irreducible representations).

                           Ag   B1g  B2g  B3g  Au   B1u  B2u  B3u   All 
 ------------------------------------------------------------------------
 All molecular orbitals:
  - Alpha                  11   2    5    5    2    11   5    5     46  
  - Beta                   11   2    5    5    2    11   5    5     46  
 ------------------------------------------------------------------------
 Alpha orbitals:
  - Frozen occupied        1    0    0    0    0    1    0    0     2   
  - Active occupied        2    0    1    1    0    1    1    1     7   
  - Active virtual         8    2    4    4    2    9    4    4     37  
  - Frozen virtual         0    0    0    0    0    0    0    0     0   
 ------------------------------------------------------------------------
 Beta orbitals:
  - Frozen occupied        1    0    0    0    0    1    0    0     2   
  - Active occupied        2    0    0    1    0    1    1    1     6   
  - Active virtual         8    2    5    4    2    9    4    4     38  
  - Frozen virtual         0    0    0    0    0    0    0    0     0   
 ------------------------------------------------------------------------

 Import integrals:   CPU 0.00 s  wall 0.00 s

 Import integrals:   CPU 0.45 s  wall 0.45 s


 MP2  CPU 0.37 s  wall 0.37 s
Running a double precision version
           CCSD T amplitudes will be solved using DIIS.

           Start     Size      MaxIter   EConv     TConv     
           3         7         100       1.00e-06  1.00e-04  
 ------------------------------------------------------------------------------
           Energy (a.u.)   Ediff      Tdiff       Comment
 ------------------------------------------------------------------------------
          -150.01032468                           
     1    -149.99694297   1.34e-02   5.57e-01     
     2    -150.01306725   1.61e-02   8.57e-02     
     3    -150.01262278   4.44e-04   3.56e-02     
     4    -150.01451099   1.89e-03   1.10e-02     Switched to DIIS steps.
     5    -150.01554658   1.04e-03   1.19e-02     
     6    -150.01559536   4.88e-05   2.02e-03     
     7    -150.01559135   4.02e-06   9.97e-04     
     8    -150.01559497   3.62e-06   2.69e-04     
     9    -150.01559573   7.67e-07   1.36e-04     
    10    -150.01559562   1.14e-07   4.12e-05     
 ------------------------------------------------------------------------------
          -150.01559562                           CCSD T converged.

 End of double precision
 SCF energy                 = -149.61192851
 MP2 energy                 = -150.01032468
 CCSD correlation energy    =   -0.40366711
 CCSD total energy          = -150.01559562

 CCSD  T1^2 = 0.0185  T2^2 = 0.1314  Leading amplitudes:

 Amplitude    Orbitals with energies
 -0.0521       1 (B3u) B                 ->    2 (B3u) B                  
              -0.1433                          0.4256                     
  0.0501       1 (B3g) A                 ->    2 (B3g) A                  
              -0.1256                          0.4441                     
  0.0493       1 (B2g) A                 ->    2 (B2g) A                  
              -0.1865                          0.4370                     
 -0.0452       1 (B3u) A                 ->    2 (B3u) A                  
              -0.3931                          0.4045                     

 Amplitude    Orbitals with energies
 -0.0697       3 (Ag) A      3 (Ag) B    ->    5 (B1u) A     5 (B1u) B    
              -0.3172       -0.2894            0.7265        0.7549       
  0.0697       3 (Ag) A      3 (Ag) B    ->    5 (B1u) B     5 (B1u) A    
              -0.3172       -0.2894            0.7549        0.7265       
  0.0697       3 (Ag) B      3 (Ag) A    ->    5 (B1u) A     5 (B1u) B    
              -0.2894       -0.3172            0.7265        0.7549       
 -0.0697       3 (Ag) B      3 (Ag) A    ->    5 (B1u) B     5 (B1u) A    
              -0.2894       -0.3172            0.7549        0.7265       

 Computing CCSD intermediates for later calculations in double precision
 Finished.

Running a double precision version
           CCSD Lambda amplitudes will be solved using DIIS.
           Start     Size      MaxIter   EConv     LConv     
           3         7         100       1.00e-06  1.00e-04  
 ------------------------------------------------------------------------------
            Enorm      Ldiff       Comment
 ------------------------------------------------------------------------------
     1     4.03e-02   2.30e-02     
     2     1.42e-02   6.25e-03     
     3     5.72e-03   1.45e-03     
     4     3.29e-03   1.30e-03     Switched to DIIS steps.
     5     7.39e-04   1.17e-03     
     6     2.92e-04   1.79e-04     
     7     8.53e-05   4.14e-05     
     8     3.92e-05   8.72e-06     
     9     1.37e-05   2.95e-06     
    10     5.28e-06   6.83e-07     
    11     2.01e-06   3.00e-07     
    12     7.30e-07   1.24e-07     
 ------------------------------------------------------------------------------
                                   CCSD Lambda converged.


 CCSD  CPU 19.57 s  wall 19.59 s
        Solving for EOMIP-CCSD B3g transitions.

Running a double precision version
      EOMIP-CCSD/MP2 right amplitudes will be solved using Davidson.
        Amplitudes will be solved using standard  algorithm.
     Hard-coded thresholds: 
     LinDepThresh=1.00e-15  NormThresh=1.00e-06  ReorthogonThresh=1.00e-02

      Roots     MaxVec    MaxIter   Precond   Conv      Shift    
      1         120       60        1         1.00e-05  0.00e+00  
 ------------------------------------------------------------------------------
      Iter ConvRoots NVecs ResNorm^2 Current eigenvalues (eV)
 ------------------------------------------------------------------------------
      0    0      1     2.37e-01   5.3335   
      1    0      2     5.95e-02   2.0321   
      2    0      3     2.62e-03   1.1219   
      3    0      4     3.41e-04   1.0395   
      4    0      5     1.02e-04   1.0362   
      5    0      6     4.40e-05   1.0317   
      6    1      7     6.19e-06   1.0323*  

     Davidson procedure converged

 EOMIP transition 1/B3g
 Total energy = -149.97765913 a.u.  Excitation energy = 1.0323 eV.
 R1^2 = 0.9049  R2^2 = 0.0951  Res^2 = 6.19e-06
 Conv-d = yes

 Amplitude    Transitions between orbitals
  0.9512       1 (B3g) A                 ->    infty        

              Summary of significant orbitals:

               Number  Type             Irrep      Energy
               9       Occ  Alpha       1 (B3g)     -0.1256


Running a double precision version
      EOMIP-CCSD/MP2 left amplitudes will be solved using Davidson.
        Amplitudes will be solved using MOM  algorithm.
     Hard-coded thresholds: 
     LinDepThresh=1.00e-15  NormThresh=1.00e-06  ReorthogonThresh=1.00e-02

      Roots     MaxVec    MaxIter   Precond   Conv      Shift    
      1         120       60        1         1.00e-05  0.00e+00  
 ------------------------------------------------------------------------------
      Iter ConvRoots NVecs ResNorm^2 Current eigenvalues (eV)
 ------------------------------------------------------------------------------
      0    0      1     1.19e-02   1.0323   
      1    0      2     1.97e-03   1.0323   
      2    0      3     1.30e-04   1.0324   
      3    0      4     1.52e-05   1.0324   
      4    1      5     2.30e-06   1.0324*  

     Davidson procedure converged


 EOMIP-CCSD  CPU 1.47 s  wall 1.48 s

 Start computing the transition properties

 ------------------------------------------------------------------------------
 State A: ccsd: 0/Ag
 State B: eomip_ccsd/a: 1/B3g

       ***    Dyson orbital calculation   *** 

 Reference -- EOM-IP-CCSD state  1/B3g   transition
 Energy difference = -1.0323 eV.

 Left Dyson orbital norm is 0.9388

Left alpha Dyson orbital in the MO basis (canonical Q-Chem's ordering):
0  -8.2500e-17 
1  -1.6947e-17 
2  -4.9624e-17 
3  1.9798e-17  
4  1.2160e-16  
5  9.7663e-16  
6  -1.4843e-16 
7  4.1242e-16  
8  9.9671e-01  
9  -1.5115e-15 
10 1.6681e-16  
11 3.2277e-16  
12 -2.9411e-17 
13 5.8151e-16  
14 7.6263e-02  
15 1.0796e-16  
16 2.5880e-15  
17 -1.6441e-15 
18 -6.6987e-17 
19 2.2551e-15  
20 3.3222e-16  
21 1.1893e-15  
22 4.4981e-16  
23 -1.4280e-16 
24 -4.5264e-16 
25 -1.5799e-16 
26 2.5041e-02  
27 -2.6458e-15 
28 3.0384e-16  
29 7.4891e-16  
30 2.0405e-15  
31 -3.7899e-16 
32 5.6109e-17  
33 -1.1194e-02 
34 -2.4867e-18 
35 -1.6545e-16 
36 -2.3965e-16 
37 -3.4581e-16 
38 -6.1578e-16 
39 5.3292e-17  
40 -3.9891e-15 
41 4.1992e-16  
42 -4.2905e-16 
43 -3.2449e-16 
44 -4.5007e-05 
45 -7.3321e-16 

Decomposition over AOs for the left alpha Dyson orbital:
-4.97628325e-16
1.88093245e-15
3.96352403e-14
1.02936012e-13
-6.17247322e-06
-4.64023371e-01
5.30117326e-16
-5.03647499e-06
-3.78623288e-01
-5.24830849e-14
-3.75947098e-06
-2.82622918e-01
-3.10666059e-14
-5.93166249e-17
-5.32503344e-03
-3.46372206e-16
-7.08339891e-08
-3.30758829e-17
-2.15238832e-16
-5.79841439e-03
2.48362422e-14
-7.71309352e-08
8.24056582e-16
1.65927155e-15
7.42155708e-16
-4.60071308e-14
-1.01038059e-13
6.17247322e-06
4.64023371e-01
-6.49167845e-16
5.03647499e-06
3.78623288e-01
-5.04385882e-14
3.75947099e-06
2.82622918e-01
-2.78266070e-14
2.45125972e-17
-5.32503344e-03
2.41012023e-16
-7.08339890e-08
-1.48555297e-17
-3.17577975e-16
-5.79841439e-03
-2.28309073e-14
-7.71309352e-08
-8.05472741e-16
   *****

 Right Dyson orbital norm is 0.9282

Right alpha Dyson orbital in the MO basis (canonical Q-Chem's ordering):
0  -8.4636e-17 
1  -2.2676e-17 
2  -4.1637e-17 
3  2.4840e-17  
4  1.1438e-16  
5  8.2242e-16  
6  -1.5509e-16 
7  4.0133e-16  
8  9.9803e-01  
9  -1.4923e-15 
10 1.5142e-16  
11 3.1146e-16  
12 3.0984e-17  
13 5.7545e-16  
14 5.8408e-02  
15 1.3344e-16  
16 2.5678e-15  
17 -1.6281e-15 
18 -6.4523e-17 
19 2.2401e-15  
20 3.1434e-16  
21 1.1973e-15  
22 4.7459e-16  
23 -1.3744e-16 
24 -4.7392e-16 
25 -1.4496e-16 
26 2.0779e-02  
27 -2.5905e-15 
28 3.1137e-16  
29 6.7113e-16  
30 2.0122e-15  
31 -3.2207e-16 
32 6.1519e-17  
33 -9.8131e-03 
34 2.4933e-17  
35 -1.7906e-16 
36 -2.2769e-16 
37 -3.3271e-16 
38 -6.1092e-16 
39 5.4400e-17  
40 -3.9002e-15 
41 4.1205e-16  
42 -4.2543e-16 
43 -3.0892e-16 
44 1.8099e-04  
45 -7.2728e-16 

Decomposition over AOs for the right alpha Dyson orbital:
-3.97142610e-16
1.60963100e-15
3.30797872e-14
8.81966731e-14
-6.24606596e-06
-4.69555797e-01
4.62932215e-16
-5.06309292e-06
-3.80624324e-01
-4.41411705e-14
-3.38701401e-06
-2.54623001e-01
-2.66545843e-14
-6.32689616e-17
-5.03930984e-03
-2.71417112e-16
-6.70332726e-08
-3.33338380e-17
-1.69876875e-16
-4.80571581e-03
2.08150169e-14
-6.39259857e-08
6.84268963e-16
1.38698873e-15
6.39500064e-16
-3.84602154e-14
-8.66450099e-14
6.24606596e-06
4.69555797e-01
-4.91105671e-16
5.06309292e-06
3.80624324e-01
-4.23020694e-14
3.38701401e-06
2.54623001e-01
-2.41174801e-14
2.86011266e-17
-5.03930984e-03
1.95684709e-16
-6.70332726e-08
-1.39840247e-17
-3.51201102e-16
-4.80571581e-03
-1.90874999e-14
-6.39259857e-08
-6.70490986e-16
   *****

g1p_r_b_a from Dyson code  -3.6862e-16
   1.4940e-15
   3.0704e-14
   8.1863e-14
  -5.7975e-06
  -4.3584e-01
   4.2969e-16
  -4.6995e-06
  -3.5329e-01
  -4.0971e-14
  -3.1438e-06
  -2.3634e-01
  -2.4741e-14
  -5.8726e-17
  -4.6774e-03
  -2.5193e-16
  -6.2220e-08
  -3.0940e-17
  -1.5768e-16
  -4.4606e-03
   1.9320e-14
  -5.9336e-08
   6.3513e-16
   1.2874e-15
   5.9358e-16
  -3.5698e-14
  -8.0423e-14
   5.7975e-06
   4.3584e-01
  -4.5584e-16
   4.6995e-06
   3.5329e-01
  -3.9264e-14
   3.1438e-06
   2.3634e-01
  -2.2386e-14
   2.6547e-17
  -4.6774e-03
   1.8163e-16
  -6.2220e-08
  -1.2980e-17
  -3.2598e-16
  -4.4606e-03
  -1.7717e-14
  -5.9336e-08
  -6.2234e-16

     End transition


 All requested transition properties have been computed


 Transition Properties  CPU 0.09 s  wall 0.09 s
 Total ccman2 time:   CPU 23.84 s  wall 23.88 s

 
 --------------------------------------------------------------
             Orbital Energies (a.u.) and Symmetries
 --------------------------------------------------------------
 
 Alpha MOs, Unrestricted
 -- Occupied --                  
-20.335 -20.334  -1.190  -0.821  -0.393  -0.338  -0.317  -0.187
  1 Ag    1 B1u   2 Ag    2 B1u   1 B3u   1 B2u   3 Ag    1 B2g                
 -0.126
  1 B3g                                                                        
 -- Virtual --                   
  0.301   0.386   0.405   0.412   0.437   0.444   0.494   0.605
  3 B1u   4 Ag    2 B3u   2 B2u   2 B2g   2 B3g   5 Ag    4 B1u                
  0.727   1.159   1.159   1.313   1.332   1.339   1.440   1.440
  5 B1u   6 Ag    1 B1g   3 B3u   3 B2u   7 Ag    6 B1u   1 Au                 
  1.533   1.560   1.568   1.594   1.632   1.657   1.932   1.992
  3 B2g   3 B3g   7 B1u   4 B3u   4 B2u   8 B1u   8 Ag    4 B2g                
  2.017   2.611   3.553   3.621   3.654   3.786   3.788   3.862
  4 B3g   9 Ag   10 Ag    5 B3u   5 B2u   2 B1g  11 Ag    9 B1u                
  3.895   3.895   4.159   4.197   4.562
 10 B1u   2 Au    5 B2g   5 B3g  11 B1u                                        
 
 Beta MOs, Unrestricted
 -- Occupied --                  
-20.307 -20.306  -1.111  -0.710  -0.309  -0.289  -0.143  -0.089
  1 Ag    1 B1u   2 Ag    2 B1u   1 B2u   3 Ag    1 B3u   1 B3g                
 -- Virtual --                   
  0.303   0.358   0.389   0.414   0.426   0.447   0.488   0.520
  3 B1u   1 B2g   4 Ag    2 B2u   2 B3u   2 B3g   5 Ag    2 B2g                
  0.618   0.755   1.164   1.164   1.329   1.337   1.343   1.460
  4 B1u   5 B1u   1 B1g   6 Ag    3 B2u   3 B3u   7 Ag    1 Au                 
  1.461   1.569   1.581   1.610   1.648   1.669   1.714   1.954
  6 B1u   3 B3g   7 B1u   3 B2g   4 B2u   8 B1u   4 B3u   8 Ag                 
  2.023   2.041   2.630   3.582   3.662   3.670   3.847   3.847
  4 B3g   4 B2g   9 Ag   10 Ag    5 B2u   5 B3u   2 B1g  11 Ag                 
  3.881   3.960   3.960   4.209   4.224   4.590
  9 B1u   2 Au   10 B1u   5 B3g   5 B2g  11 B1u                                
 --------------------------------------------------------------
 
          Ground-State Mulliken Net Atomic Charges

     Atom                 Charge (a.u.)    Spin (a.u.)
  --------------------------------------------------------
      1 O                    -0.500000       0.500000
      2 O                    -0.500000       0.500000
  --------------------------------------------------------
  Sum of atomic charges =    -1.000000
  Sum of spin   charges =     1.000000

 -----------------------------------------------------------------
                    Cartesian Multipole Moments
 -----------------------------------------------------------------
    Charge (ESU x 10^10)
                -4.8032
    Dipole Moment (Debye)
         X      -0.0000      Y      -0.0000      Z       0.0000
       Tot       0.0000
    Quadrupole Moments (Debye-Ang)
        XX     -13.0253     XY      -0.0000     YY     -13.9652
        XZ      -0.0000     YZ      -0.0000     ZZ     -16.0441
    Octopole Moments (Debye-Ang^2)
       XXX      -0.0000    XXY      -0.0000    XYY      -0.0000
       YYY      -0.0000    XXZ      -0.0000    XYZ       0.0000
       YYZ      -0.0000    XZZ      -0.0000    YZZ      -0.0000
       ZZZ       0.0000
    Hexadecapole Moments (Debye-Ang^3)
      XXXX     -14.5646   XXXY      -0.0000   XXYY      -4.9623
      XYYY      -0.0000   YYYY     -15.2102   XXXZ      -0.0000
      XXYZ      -0.0000   XYYZ      -0.0000   YYYZ      -0.0000
      XXZZ     -10.9437   XYZZ      -0.0000   YYZZ     -12.4583
      XZZZ      -0.0000   YZZZ       0.0000   ZZZZ     -49.1697
 -----------------------------------------------------------------
 Total job time:  27.92s(wall), 27.81s(cpu) 
 Mon Jun  2 15:54:11 2025

        *************************************************************
        *                                                           *
        *  Thank you very much for using Q-Chem.  Have a nice day.  *
        *                                                           *
        *************************************************************


