
Running Job 1 of 1 CuO_augccPVDZPP_dyson.inp
qchem CuO_augccPVDZPP_dyson.inp_1289037.0 /home/a.pratichhya/pratichhya/CuO/CuO_augccPVDZPP_dyson/SCRATCH_FOLDER/qchem1289037/ 1
/opt/qchem/exe/qcprog.exe_s CuO_augccPVDZPP_dyson.inp_1289037.0 /home/a.pratichhya/pratichhya/CuO/CuO_augccPVDZPP_dyson/SCRATCH_FOLDER/qchem1289037/
                  Welcome to Q-Chem
     A Quantum Leap Into The Future Of Chemistry


 Q-Chem 6.3, Q-Chem, Inc., Pleasanton, CA (2025)

 E. Epifanovsky,  A. T. B. Gilbert,  Xintian Feng,  Joonho Lee,  Yuezhi Mao,  
 N. Mardirossian,  P. Pokhilko,  A. White,  M. Wormit,  M. P. Coons,  
 A. L. Dempwolff,  Zhengting Gan,  D. Hait,  P. R. Horn,  L. D. Jacobson,  
 I. Kaliman,  J. Kussmann,  A. W. Lange,  Ka Un Lao,  D. S. Levine,  Jie Liu,  
 S. C. McKenzie,  A. F. Morrison,  K. D. Nanda,  F. Plasser,  D. R. Rehn,  
 M. L. Vidal,  Zhi-Qiang You,  Ying Zhu,  Huseyin Aksu,  B. Alam,  
 B. Albrecht,  A. Aldossary,  E. Alguire,  J. H. Andersen,  
 J. E. Arias-Martinez,  V. Athavale,  F. Ballesteros,  D. Barton,  K. Begam,  
 A. Behn,  N. Bellonzi,  Y. A. Bernard,  E. J. Berquist,  H. Burton,  
 S. Camps,  A. Carreras,  K. Carter-Fenk,  Mathew Chow,  Romit Chakraborty,  
 Chandrima Chakravarty,  Junhan Chen,  A. D. Chien,  K. D. Closser,  
 V. Cofer-Shabica,  L. Cunha,  S. Dasgupta,  Jia Deng,  Joseph Dickinson,  
 M. de Wergifosse,  M. Diedenhofen,  L. B. Dittmer,  Hainam Do,  Wenjie Dou,  
 S. Ehlert,  Po-Tung Fang,  S. Fatehi,  Qingguo Feng,  Jonathan Fetherolf,  
 T. Friedhoff,  Thomas Froitzheim,  Sarai Folkestad,  B. Ganoe,  J. Gayvert,  
 Qinghui Ge,  G. Gidofalvi,  M. Gimferrer,  G. Giudetti,  M. Goldey,  
 Montgomery Gray,  J. Gomes,  C. Gonzalez-Espinoza,  S. Gulania,  A. Gunina,  
 J. A. Gyamfi,  M. W. D. Hanson-Heine,  P. H. P. Harbach,  A. W. Hauser,  
 M. F. Herbst,  M. Hernandez Vera,  M. Hodecker,  Z. C. Holden,  S. Houck,  
 Xunkun Huang,  Kerwin Hui,  B. C. Huynh,  K. Ikeda,  M. Ivanov,  
 Nayanthara K. Jayadev,  Hyunjun Ji,  Zuxin Jin,  Hanjie Jiang,  
 Subrata Jana,  B. Kaduk,  S. Kaehler,  R. Kang,  Richard Kang,  
 K. Khistyaev,  Jaehoon Kim,  Yongbin Kim,  P. Klunzinger,  Z. Koczor-Benda,  
 Joong Hoon Koh,  D. Kosenkov,  Saikiran Kotaru,  L. Koulias,  T. Kowalczyk,  
 C. M. Krauter,  K. Kue,  A. Kunitsa,  T. Kus,  A. Landau,  C. W. Lander,  
 K. V. Lawler,  D. Lefrancois,  S. Lehtola,  Rain Li,  Shaozhi Li,  
 Tao E. Li,  Yi-Pei Li,  Jiashu Liang,  M. Liebenthal,  Hung-Hsuan Lin,  
 You-Sheng Lin,  Fenglai Liu,  Kuan-Yu Liu,  Xiao Liu,  M. Loipersberger,  
 A. Luenser,  C. Malbon,  Aniket Mandal,  Manisha,  A. Manjanath,  
 P. Manohar,  E. Mansoor,  S. F. Manzer,  Shan-Ping Mao,  A. V. Marenich,  
 T. Markovich,  S. Mason,  F. Matz,  S. A. Maurer,  Samuel May,  
 Alexandra McIsaac,  P. F. McLaughlin,  M. F. S. J. Menger,  J.-M. Mewes,  
 S. A. Mewes,  R. E. Moorby,  P. Morgante,  Mohammad Mostafanejad,  
 Madhubani Mukherjee,  J. W. Mullinax,  Quyen Nguyen,  Avik Kumar Ojha,  
 K. J. Oosterbaan,  Eno Paenurk,  Xiaoliang Pan,  G. Paran,  V. Parravicini,  
 R. L. Patterson,  Alexander C. Paul,  Suranjan K. Paul,  F. Pavosevic,  
 Zheng Pei,  P. Pokhilko,  S. Prager,  E. I. Proynov,  E. Ramos,  B. Rana,  
 A. E. Rask,  A. Rettig,  R. M. Richard,  F. Rob,  E. Rossomme,  S. Roy,  
 T. Scheele,  M. Scheurer,  M. Schneider,  P. E. Schneider,  Tim K. Schramm,  
 N. Sergueev,  S. M. Sharada,  Hengyuan Shen,  W. Skomorowski,  D. W. Small,  
 C. J. Stein,  Alistair J. Sterling,  Yingli Su,  Yu-Chuan Su,  
 E. J. Sundstrom,  J. Talbot,  J. A. Tan,  Zhen Tao,  Hung-Hsuan Teh,  
 J. Thirman,  C. Titeca,  N. Tkachenko,  Hung-Yi Tsai,  T. Tsuchimochi,  
 N. M. Tubman,  C. Utku,  S. P. Veccham,  O. Vydrov,  Z. Wang,  Rahel Weiss,  
 J. Wenzel,  Jonathan Wong,  J. Witte,  H. Wu,  Yanze Wu,  A. Yamada,  
 Chou-Hsun Yang,  Kun Yao,  S. Yeganeh,  S. R. Yost,  Qi Yu,  A. Zech,  
 F. Zeller,  Chongxiao Zhao,  T. Zhao,  Igor Ying Zhang,  Xing Zhang,  
 Yu Zhang,  D. Zuev,  A. Aspuru-Guzik,  A. T. Bell,  N. A. Besley,  
 K. B. Bravaya,  B. R. Brooks,  D. Casanova,  Jeng-Da Chai,  Hsing-Ta Chen,  
 S. Coriani,  C. J. Cramer,  A. E. DePrince, III,  R. A. DiStasio Jr.,  
 A. Dreuw,  B. D. Dunietz,  T. R. Furlani,  W. A. Goddard III,  S. Grimme,  
 S. Hammes-Schiffer,  T. Head-Gordon,  W. J. Hehre,  Chao-Ping Hsu,  
 T.-C. Jagau,  Yousung Jung,  A. Klamt,  Jing Kong,  D. S. Lambrecht,  
 Xiangyuan Li,  WanZhen Liang,  N. J. Mayhall,  C. W. McCurdy,  J. B. Neaton,  
 T. Neudecker,  C. Ochsenfeld,  J. A. Parkhill,  R. Peverati,  
 V. A. Rassolov,  Haisheng Ren,  Yihan Shao,  L. V. Slipchenko,  
 R. P. Steele,  J. E. Subotnik,  A. J. W. Thom,  A. Tkatchenko,  
 D. G. Truhlar,  T. Van Voorhis,  Fan Wang,  T. A. Wesolowski,  K. B. Whaley,  
 H. L. Woodcock III,  P. M. Zimmerman,  S. Faraji,  P. M. W. Gill,  
 M. Head-Gordon,  J. M. Herbert,  A. I. Krylov

 Contributors to earlier versions of Q-Chem not listed above: 
 R. D. Adamson,  B. Austin,  R. Baer,  J. Baker,  G. J. O. Beran,  
 K. Brandhorst,  S. T. Brown,  E. F. C. Byrd,  Arup K. Chakraborty,  
 G. K. L. Chan,  Chun-Min Chang,  Yunqing Chen,  C.-L. Cheng,  
 Siu Hung Chien,  D. M. Chipman,  D. L. Crittenden,  H. Dachsel,  
 R. J. Doerksen,  A. D. Dutoi,  R. G. Edgar,  J. Fosso-Tande,  
 L. Fusti-Molnar,  D. Ghosh,  A. Ghysels,  A. Golubeva-Zadorozhnaya,  
 J. Gonthier,  M. S. Gordon,  S. R. Gwaltney,  G. Hawkins,  J. E. Herr,  
 A. Heyden,  S. Hirata,  E. G. Hohenstein,  G. Kedziora,  F. J. Keil,  
 C. Kelley,  Jihan Kim,  R. A. King,  R. Z. Khaliullin,  P. P. Korambath,  
 W. Kurlancheek,  A. Laurent,  A. M. Lee,  M. S. Lee,  S. V. Levchenko,  
 Ching Yeh Lin,  D. Liotard,  E. Livshits,  R. C. Lochan,  I. Lotan,  
 L. A. Martinez-Martinez,  P. E. Maslen,  N. Nair,  D. P. O'Neill,  
 D. Neuhauser,  E. Neuscamman,  C. M. Oana,  R. Olivares-Amaya,  R. Olson,  
 T. M. Perrine,  B. Peters,  P. A. Pieniazek,  A. Prociuk,  Y. M. Rhee,  
 J. Ritchie,  M. A. Rohrdanz,  E. Rosta,  N. J. Russ,  H. F. Schaefer III,  
 M. W. Schmidt,  N. E. Schultz,  S. Sharma,  N. Shenvi,  C. D. Sherrill,  
 A. C. Simmonett,  A. Sodt,  T. Stein,  D. Stuck,  K. S. Thanthiriwatte,  
 V. Vanovschi,  L. Vogt,  Tao Wang,  A. Warshel,  M. A. Watson,  
 C. F. Williams,  Q. Wu,  X. Xu,  Jun Yang,  W. Zhang,  Yan Zhao

   Please cite Q-Chem as follows:
  "Software for the frontiers of quantum chemistry:
   An overview of developments in the Q-Chem 5 package"
   J. Chem. Phys. 155, 084801 (2021)
   https://doi.org/10.1063/5.0055522 (open access)

 Q-Chem 6.3.0 for Intel X86 EM64T Linux

 Parts of Q-Chem use Armadillo 12.8.2 (Cortisol Injector).
 http://arma.sourceforge.net/

 Q-Chem begins on Mon Jun 30 11:32:35 2025  

 Host: 
0

     Scratch files written to /home/a.pratichhya/pratichhya/CuO/CuO_augccPVDZPP_dyson/SCRATCH_FOLDER/qchem1289037//
 May2125 |scratch|qcdevops|jenkins|workspace|build_RNUM -1
 Processing $rem in /opt/qchem/config/preferences:
 Processing $rem in /home/a.pratichhya/.qchemrc:
 Core orbitals will be frozen

 Checking the input file for inconsistencies... 	...done.

--------------------------------------------------------------
User input:
--------------------------------------------------------------
$molecule
-1 1
Cu   0   0   0
O   0    0   1.67
$end

$rem
BASIS  =  gen
CC_DO_DYSON = 1
CC_TRANS_PROP = 1
EOM_DAVIDSON_CONVERGENCE = 6
CC_MEMORY  =  14000
MEM_TOTAL = 15000
PRINT_GENERAL_BASIS = 1
ECP  =  gen
IP_STATES  =  [1,0,1,1]
GUI  =  2
JOB_TYPE  =  SP
METHOD  =  EOM-CCSD
$end

$basis
Cu     0
S   8   1.00
560.0880000              0.0006370
56.6486000             -0.0097350
35.4258000              0.0657930
11.0546000             -0.4150350
2.3068200              0.7466110
0.9514290              0.4621730
0.1451840              0.0159830
0.0503250             -0.0027670
S   8   1.00
560.0880000             -0.0001360
56.6486000              0.0014010
35.4258000             -0.0131740
11.0546000              0.0956950
2.3068200             -0.2118740
0.9514290             -0.2359440
0.1451840              0.5081150
0.0503250              0.6215190
S   1   1.00
0.0503250              1.0000000
S   8   1.00
560.0880000             -0.0003330
56.6486000              0.0059300
35.4258000             -0.0325490
11.0546000              0.2110710
2.3068200             -0.7305560
0.9514290              0.1772420
0.1451840              1.7148730
0.0503250             -1.6045730
S   1   1.00
0.0174000              1.0000000
P   7   1.00
70.9739000              0.0036820
17.8510000             -0.0821280
4.2467900              0.3753790
1.8776000              0.5084090
0.7933350              0.2390950
0.1934760              0.0158500
0.0573930             -0.0025270
P   7   1.00
70.9739000             -0.0009100
17.8510000              0.0299140
4.2467900             -0.1660940
1.8776000             -0.2780000
0.7933350              0.1575840
0.1934760              0.8304880
0.0573930              0.1658690
P   7   1.00
70.9739000             -0.0006280
17.8510000              0.0165630
4.2467900             -0.0845720
1.8776000             -0.1412830
0.7933350             -0.0035710
0.1934760              0.5190050
0.0573930              0.5924750
P   1   1.00
0.0573930              1.0000000
P   1   1.00
0.0170000              1.0000000
D   6   1.00
60.3804000              0.0175640
19.1121000              0.0991340
6.9528800              0.2711710
2.6099400              0.4061800
0.9225670              0.3814270
0.2836420              0.2006260
D   6   1.00
60.3804000             -0.0222860
19.1121000             -0.1282740
6.9528800             -0.3627970
2.6099400             -0.3257220
0.9225670              0.3270870
0.2836420              0.6568090
D   1   1.00
0.2836420              1.0000000
D   1   1.00
0.0872000              1.0000000
F   1   1.00
2.7482000              1.0000000
F   1   1.00
0.9066000              1.0000000
****

O     0
S   9   1.00
1.172000D+04           7.100000D-04
1.759000D+03           5.470000D-03
4.008000D+02           2.783700D-02
1.137000D+02           1.048000D-01
3.703000D+01           2.830620D-01
1.327000D+01           4.487190D-01
5.025000D+00           2.709520D-01
1.013000D+00           1.545800D-02
3.023000D-01          -2.585000D-03
S   9   1.00
1.172000D+04          -1.600000D-04
1.759000D+03          -1.263000D-03
4.008000D+02          -6.267000D-03
1.137000D+02          -2.571600D-02
3.703000D+01          -7.092400D-02
1.327000D+01          -1.654110D-01
5.025000D+00          -1.169550D-01
1.013000D+00           5.573680D-01
3.023000D-01           5.727590D-01
S   1   1.00
3.023000D-01           1.000000D+00
S   1   1.00
0.0789600              1.0000000
P   4   1.00
1.770000D+01           4.301800D-02
3.854000D+00           2.289130D-01
1.046000D+00           5.087280D-01
2.753000D-01           4.605310D-01
P   1   1.00
2.753000D-01           1.000000D+00
P   1   1.00
0.0685600              1.0000000
D   1   1.00
1.185000D+00           1.0000000
D   1   1.00
0.3320000              1.0000000
****
$end

$ecp
CU     0
CU-ECP     4     10
g potential
1
2      1.0000000              0.0000000
s-g potential
2
2     30.1105430            355.7505120
2     13.0763100             70.9309060
p-g potential
4
2     32.6926140             77.9699310
2     32.7703390            155.9274480
2     13.7510670             18.0211320
2     13.3221660             36.0943720
d-g potential
4
2     38.9965110            -12.3434100
2     39.5397880            -18.2733620
2     12.2875110             -0.9847050
2     11.4593000             -1.3187470
f-g potential
2
2      6.1901020             -0.2272640
2      8.1187800             -0.4687730
****
$end

--------------------------------------------------------------
 ----------------------------------------------------------------
             Standard Nuclear Orientation (Angstroms)
    I     Atom           X                Y                Z
 ----------------------------------------------------------------
    1      Cu      0.0000000000     0.0000000000    -0.3610810811
    2      O       0.0000000000     0.0000000000     1.3089189189
 ----------------------------------------------------------------
 Molecular Point Group                 C2v   NOp =  4
 Largest Abelian Subgroup              C2v   NOp =  4
 Nuclear Repulsion Energy =          48.16463237 hartrees
 There are       14 alpha and       14 beta electrons
 Requested basis set is non-standard
 Basis set in general basis input format:
-----------------------------------------------------------------------
$basis
Cu   0
S    8    1.000000
   5.60088000E+02    6.37000000E-04 
   5.66486000E+01   -9.73500000E-03 
   3.54258000E+01    6.57930000E-02 
   1.10546000E+01   -4.15035000E-01 
   2.30682000E+00    7.46611000E-01 
   9.51429000E-01    4.62173000E-01 
   1.45184000E-01    1.59830000E-02 
   5.03250000E-02   -2.76700000E-03 
S    8    1.000000
   5.60088000E+02   -1.36000000E-04 
   5.66486000E+01    1.40100000E-03 
   3.54258000E+01   -1.31740000E-02 
   1.10546000E+01    9.56950000E-02 
   2.30682000E+00   -2.11874000E-01 
   9.51429000E-01   -2.35944000E-01 
   1.45184000E-01    5.08115000E-01 
   5.03250000E-02    6.21519000E-01 
S    1    1.000000
   5.03250000E-02    1.00000000E+00 
S    8    1.000000
   5.60088000E+02   -3.33000000E-04 
   5.66486000E+01    5.93000000E-03 
   3.54258000E+01   -3.25490000E-02 
   1.10546000E+01    2.11071000E-01 
   2.30682000E+00   -7.30556000E-01 
   9.51429000E-01    1.77242000E-01 
   1.45184000E-01    1.71487300E+00 
   5.03250000E-02   -1.60457300E+00 
S    1    1.000000
   1.74000000E-02    1.00000000E+00 
P    7    1.000000
   7.09739000E+01    3.68200000E-03 
   1.78510000E+01   -8.21280000E-02 
   4.24679000E+00    3.75379000E-01 
   1.87760000E+00    5.08409000E-01 
   7.93335000E-01    2.39095000E-01 
   1.93476000E-01    1.58500000E-02 
   5.73930000E-02   -2.52700000E-03 
P    7    1.000000
   7.09739000E+01   -9.10000000E-04 
   1.78510000E+01    2.99140000E-02 
   4.24679000E+00   -1.66094000E-01 
   1.87760000E+00   -2.78000000E-01 
   7.93335000E-01    1.57584000E-01 
   1.93476000E-01    8.30488000E-01 
   5.73930000E-02    1.65869000E-01 
P    7    1.000000
   7.09739000E+01   -6.28000000E-04 
   1.78510000E+01    1.65630000E-02 
   4.24679000E+00   -8.45720000E-02 
   1.87760000E+00   -1.41283000E-01 
   7.93335000E-01   -3.57100000E-03 
   1.93476000E-01    5.19005000E-01 
   5.73930000E-02    5.92475000E-01 
P    1    1.000000
   5.73930000E-02    1.00000000E+00 
P    1    1.000000
   1.70000000E-02    1.00000000E+00 
D    6    1.000000
   6.03804000E+01    1.75640000E-02 
   1.91121000E+01    9.91340000E-02 
   6.95288000E+00    2.71171000E-01 
   2.60994000E+00    4.06180000E-01 
   9.22567000E-01    3.81427000E-01 
   2.83642000E-01    2.00626000E-01 
D    6    1.000000
   6.03804000E+01   -2.22860000E-02 
   1.91121000E+01   -1.28274000E-01 
   6.95288000E+00   -3.62797000E-01 
   2.60994000E+00   -3.25722000E-01 
   9.22567000E-01    3.27087000E-01 
   2.83642000E-01    6.56809000E-01 
D    1    1.000000
   2.83642000E-01    1.00000000E+00 
D    1    1.000000
   8.72000000E-02    1.00000000E+00 
F    1    1.000000
   2.74820000E+00    1.00000000E+00 
F    1    1.000000
   9.06600000E-01    1.00000000E+00 
****
O    0
S    9    1.000000
   1.17200000E+04    7.10000000E-04 
   1.75900000E+03    5.47000000E-03 
   4.00800000E+02    2.78370000E-02 
   1.13700000E+02    1.04800000E-01 
   3.70300000E+01    2.83062000E-01 
   1.32700000E+01    4.48719000E-01 
   5.02500000E+00    2.70952000E-01 
   1.01300000E+00    1.54580000E-02 
   3.02300000E-01   -2.58500000E-03 
S    9    1.000000
   1.17200000E+04   -1.60000000E-04 
   1.75900000E+03   -1.26300000E-03 
   4.00800000E+02   -6.26700000E-03 
   1.13700000E+02   -2.57160000E-02 
   3.70300000E+01   -7.09240000E-02 
   1.32700000E+01   -1.65411000E-01 
   5.02500000E+00   -1.16955000E-01 
   1.01300000E+00    5.57368000E-01 
   3.02300000E-01    5.72759000E-01 
S    1    1.000000
   3.02300000E-01    1.00000000E+00 
S    1    1.000000
   7.89600000E-02    1.00000000E+00 
P    4    1.000000
   1.77000000E+01    4.30180000E-02 
   3.85400000E+00    2.28913000E-01 
   1.04600000E+00    5.08728000E-01 
   2.75300000E-01    4.60531000E-01 
P    1    1.000000
   2.75300000E-01    1.00000000E+00 
P    1    1.000000
   6.85600000E-02    1.00000000E+00 
D    1    1.000000
   1.18500000E+00    1.00000000E+00 
D    1    1.000000
   3.32000000E-01    1.00000000E+00 
****
$end
-----------------------------------------------------------------------
 There are 25 shells and 77 basis functions
 Total memory of 15000 MB is distributed as follows: 
   MEM_STATIC is set to 192 MB
   QALLOC/CCMAN JOB total memory use is  14808 MB
 Warning: actual memory use might exceed 15000 MB

 Total QAlloc Memory Limit  15000 MB
 Mega-Array Size       188 MB
 MEM_STATIC part       192 MB


                       Distance Matrix (Angstroms)
             Cu(  1)
   O (  2)  1.670000
 
 A cutoff of  1.0D-14 yielded    325 shell pairs
 There are      3129 function pairs (      4209 Cartesian)
 Requested basis set is non-standard
 Compound shells will be simplified
 There are 25 shells and 77 basis functions
 A cutoff of  1.0D-14 yielded    325 shell pairs
 There are      3129 function pairs (      4209 Cartesian)
 Smallest overlap matrix eigenvalue = 7.00E-04

 Scale SEOQF with 1.000000e-01/1.000000e-01/1.000000e-01

 Standard Electronic Orientation quadrupole field applied
 Nucleus-field energy     =    -0.0000000017 hartrees
 ================ Generating on-the-fly SAD Guess ================
 Attempting to make child job directory: /home/a.pratichhya/pratichhya/CuO/CuO_augccPVDZPP_dyson/SCRATCH_FOLDER/qchem1289037//Frg1/
 Attempting to make child job directory: /home/a.pratichhya/pratichhya/CuO/CuO_augccPVDZPP_dyson/SCRATCH_FOLDER/qchem1289037//Frg2/
 Creating input file /home/a.pratichhya/pratichhya/CuO/CuO_augccPVDZPP_dyson/SCRATCH_FOLDER/qchem1289037/Frg1.input
 using default PutDataFrgm: nothing
 calling putenv with: QCSCRATCH=/home/a.pratichhya/pratichhya/CuO/CuO_augccPVDZPP_dyson/SCRATCH_FOLDER/qchem1289037/ 
 Spawning Job For Fragment 0
 Done Job For Fragment 0
 calling putenv with: QCSCRATCH=/home/a.pratichhya/pratichhya/CuO/CuO_augccPVDZPP_dyson/SCRATCH_FOLDER 
 calling putenv with: QCTHREADS=1 
 Creating input file /home/a.pratichhya/pratichhya/CuO/CuO_augccPVDZPP_dyson/SCRATCH_FOLDER/qchem1289037/Frg2.input
 using default PutDataFrgm: nothing
 calling putenv with: QCSCRATCH=/home/a.pratichhya/pratichhya/CuO/CuO_augccPVDZPP_dyson/SCRATCH_FOLDER/qchem1289037/ 
 Spawning Job For Fragment 1
 Done Job For Fragment 1
 calling putenv with: QCSCRATCH=/home/a.pratichhya/pratichhya/CuO/CuO_augccPVDZPP_dyson/SCRATCH_FOLDER 
 calling putenv with: QCTHREADS=1 
 Time for running child jobs:  CPU 0.00 s  wall 6.39 s
 ============= Method Specific SAD Guess Constructed =============
 Guess from on-the-fly superposition of atomic densities
 Warning: Energy on first SCF cycle will be non-variational

 -----------------------------------------------------------------------
  General SCF calculation program by
  Eric Jon Sundstrom, Paul Horn, Yuezhi Mao, Dmitri Zuev, Alec White,
  David Stuck, Shaama M.S., Shane Yost, Joonho Lee, David Small,
  Daniel Levine, Susi Lehtola, Hugh Burton, Evgeny Epifanovsky,
  Bang C. Huynh
 -----------------------------------------------------------------------
 Hartree-Fock
 A restricted SCF calculation will be
 performed using DIIS
 SCF converges when DIIS error is below 1.0e-08
 User-specified cutoff of 10e-14
 used for neglect of 2-electron integrals.
 A cutoff of 10e-14
 used for neglect of overlap integrals.
 Incremental Fock algorithm is on at the start.
 ---------------------------------------
  Cycle       Energy         DIIS error
 ---------------------------------------
    1    -270.6998535506      2.74e-02  
    2    -270.6293998871      1.95e-02  
    3    -270.7449529212      1.68e-02  
    4    -270.9213277929      1.44e-03  
    5    -270.9254596713      1.76e-03  
    6    -270.9266971362      7.32e-04  
    7    -270.9287341542      4.55e-04  
    8    -270.9299618062      2.72e-04  
    9    -270.9304608648      2.12e-04  
   10    -270.9308031177      1.15e-04  
   11    -270.9309152248      4.21e-05  
   12    -270.9309293365      1.85e-05  
   13    -270.9309325070      9.95e-06  
   14    -270.9309329379      1.26e-06  
   15    -270.9309329415      5.20e-07  
   16    -270.9309329417      2.40e-07  
   17    -270.9309329418      1.73e-08  
   18    -270.9309329418      5.53e-09  Convergence criterion met
 ---------------------------------------
 SCF time:   CPU 15.68s  wall 15.00s 
 SCF   energy =  -270.93093294
 Total energy =  -270.93093294


 ------------------------------------------------------------------------------

   CCMAN2: suite of methods based on coupled cluster
           and equation of motion theories.

   Components:
   * libvmm-1.3-trunk
     by Evgeny Epifanovsky, Ilya Kaliman.
   * libtensor-2.5-trunk
     by Evgeny Epifanovsky, Michael Wormit, Dmitry Zuev, Sam Manzer, 
        Ilya Kaliman.
   * libcc-2.5-trunk
     by Evgeny Epifanovsky, Arik Landau, Tomasz Kus, Kirill Khistyaev, 
        Dmitry Zuev, Prashant Manohar, Xintian Feng, Anna Krylov, 
        Matthew Goldey, Alec White, Thomas Jagau, Kaushik Nanda, 
        Anastasia Gunina, Alexander Kunitsa, Joonho Lee.

   CCMAN original authors:
   Anna I. Krylov, C. David Sherrill, Steven R. Gwaltney,
   Edward F. C. Byrd (2000)
   Sergey V. Levchenko, Lyudmila V. Slipchenko, Tao Wang,
   Ana-Maria C. Cristian (2003)
   Piotr A. Pieniazek, C. Melania Oana, Evgeny Epifanovsky (2007)
   Prashant Manohar (2009)

 ------------------------------------------------------------------------------


 Allocating and initializing 14000MB of RAM...
 Calculation will run on 1 core.

 
 Alpha MOs, Restricted
 -- Occupied --                  
-20.241  -5.054  -3.257  -3.247  -3.247  -0.884  -0.330  -0.330
  1 A1    2 A1    3 A1    1 B1    1 B2    4 A1    2 B1    2 B2                 
 -0.298  -0.298  -0.250  -0.120  -0.120  -0.084
  1 A2    5 A1    6 A1    3 B1    3 B2    7 A1                                 
 -- Virtual --                   
  0.131   0.150   0.150   0.161   0.236   0.309   0.309   0.334
  8 A1    4 B1    4 B2    9 A1   10 A1    5 B1    5 B2   11 A1                 
  0.457   0.457   0.462   0.462   0.468   0.539   0.541   0.541
 12 A1    2 A2    6 B1    6 B2   13 A1   14 A1    7 B1    7 B2                 
  0.576   0.728   0.728   0.752   1.107   1.289   1.289   1.364
 15 A1    8 B1    8 B2   16 A1   17 A1    3 A2   18 A1    9 B1                 
  1.364   1.382   1.382   1.520   1.558   1.558   1.713   1.838
  9 B2    4 A2   19 A1   20 A1   10 B1   10 B2   21 A1   11 B1                 
  1.838   2.309   2.847   3.185   3.185   3.263   3.263   3.283
 11 B2   22 A1   23 A1   12 B1   12 B2   13 B1   13 B2   24 A1                 
  3.283   3.431   3.484   3.484   3.831   3.957   3.957   4.044
  5 A2   25 A1   14 B1   14 B2   26 A1   27 A1    6 A2   15 B1                 
  4.044   4.346   4.895   4.895   4.954   4.954   5.149   9.254
 15 B2   28 A1    7 A2   29 A1   16 B1   16 B2   30 A1   17 B1                 
  9.254   9.259   9.259   9.376   9.376   9.480  26.444
 17 B2   31 A1    8 A2   18 B1   18 B2   32 A1   33 A1                         
 
 Beta MOs, Restricted
 -- Occupied --                  
-20.241  -5.054  -3.257  -3.247  -3.247  -0.884  -0.330  -0.330
  1 A1    2 A1    3 A1    1 B1    1 B2    4 A1    2 B1    2 B2                 
 -0.298  -0.298  -0.250  -0.120  -0.120  -0.084
  1 A2    5 A1    6 A1    3 B1    3 B2    7 A1                                 
 -- Virtual --                   
  0.131   0.150   0.150   0.161   0.236   0.309   0.309   0.334
  8 A1    4 B1    4 B2    9 A1   10 A1    5 B1    5 B2   11 A1                 
  0.457   0.457   0.462   0.462   0.468   0.539   0.541   0.541
 12 A1    2 A2    6 B1    6 B2   13 A1   14 A1    7 B1    7 B2                 
  0.576   0.728   0.728   0.752   1.107   1.289   1.289   1.364
 15 A1    8 B1    8 B2   16 A1   17 A1    3 A2   18 A1    9 B1                 
  1.364   1.382   1.382   1.520   1.558   1.558   1.713   1.838
  9 B2    4 A2   19 A1   20 A1   10 B1   10 B2   21 A1   11 B1                 
  1.838   2.309   2.847   3.185   3.185   3.263   3.263   3.283
 11 B2   22 A1   23 A1   12 B1   12 B2   13 B1   13 B2   24 A1                 
  3.283   3.431   3.484   3.484   3.831   3.957   3.957   4.044
  5 A2   25 A1   14 B1   14 B2   26 A1   27 A1    6 A2   15 B1                 
  4.044   4.346   4.895   4.895   4.954   4.954   5.149   9.254
 15 B2   28 A1    7 A2   29 A1   16 B1   16 B2   30 A1   17 B1                 
  9.254   9.259   9.259   9.376   9.376   9.480  26.444
 17 B2   31 A1    8 A2   18 B1   18 B2   32 A1   33 A1                         

 Occupation and symmetry of molecular orbitals

 Point group: C2v (4 irreducible representations).

                           A1   A2   B1   B2    All 
 ----------------------------------------------------
 All molecular orbitals:
  - Alpha                  33   8    18   18    77  
  - Beta                   33   8    18   18    77  
 ----------------------------------------------------
 Alpha orbitals:
  - Frozen occupied        3    0    1    1     5   
  - Active occupied        4    1    2    2     9   
  - Active virtual         26   7    15   15    63  
  - Frozen virtual         0    0    0    0     0   
 ----------------------------------------------------
 Beta orbitals:
  - Frozen occupied        3    0    1    1     5   
  - Active occupied        4    1    2    2     9   
  - Active virtual         26   7    15   15    63  
  - Frozen virtual         0    0    0    0     0   
 ----------------------------------------------------

 Import integrals:   CPU 0.00 s  wall 0.00 s

 Import integrals:   CPU 4.10 s  wall 4.21 s


 MP2  CPU 0.40 s  wall 0.41 s
Running a double precision version
           CCSD T amplitudes will be solved using DIIS.

           Start     Size      MaxIter   EConv     TConv     
           3         7         100       1.00e-06  1.00e-04  
 ------------------------------------------------------------------------------
           Energy (a.u.)   Ediff      Tdiff       Comment
 ------------------------------------------------------------------------------
          -271.73010186                           
     1    -271.53722580   1.93e-01   4.92e-01     
     2    -271.66838591   1.31e-01   3.87e-03     
     3    -271.56385818   1.05e-01   6.51e-02     
     4    -271.61377884   4.99e-02   5.45e-01     Switched to DIIS steps.
     5    -271.61861191   4.83e-03   2.17e-02     
     6    -271.62073195   2.12e-03   1.16e-02     
     7    -271.62042987   3.02e-04   1.06e-02     
     8    -271.61990631   5.24e-04   4.50e-03     
     9    -271.61976894   1.37e-04   1.69e-03     
    10    -271.61989346   1.25e-04   1.91e-03     
    11    -271.61990728   1.38e-05   8.73e-04     
    12    -271.61985877   4.85e-05   4.34e-04     
    13    -271.61985054   8.23e-06   4.23e-04     
    14    -271.61986441   1.39e-05   2.55e-04     
    15    -271.61985663   7.78e-06   1.84e-04     
    16    -271.61985432   2.31e-06   9.36e-05     
    17    -271.61985983   5.51e-06   9.09e-05     
    18    -271.61985801   1.82e-06   4.02e-05     
    19    -271.61985747   5.44e-07   2.59e-05     
 ------------------------------------------------------------------------------
          -271.61985747                           CCSD T converged.

 End of double precision
 SCF energy                 = -270.93093294
 MP2 energy                 = -271.73010186
 CCSD correlation energy    =   -0.68892452
 CCSD total energy          = -271.61985747

 CCSD  T1^2 = 0.0944  T2^2 = 0.2118  Leading amplitudes:

 Amplitude    Orbitals with energies
  0.1156       7 (A1) A                  ->    10 (A1) A                  
              -0.0843                          0.2358                     
  0.1156       7 (A1) B                  ->    10 (A1) B                  
              -0.0843                          0.2358                     
  0.0717       3 (B2) A                  ->    5 (B2) A                   
              -0.1201                          0.3091                     
  0.0717       3 (B2) B                  ->    5 (B2) B                   
              -0.1201                          0.3091                     
 -0.0717       3 (B1) A                  ->    5 (B1) A                   
              -0.1201                          0.3091                     
 -0.0717       3 (B1) B                  ->    5 (B1) B                   
              -0.1201                          0.3091                     

 Amplitude    Orbitals with energies
 -0.0689       7 (A1) A      7 (A1) B    ->    10 (A1) A     10 (A1) B    
              -0.0843       -0.0843            0.2358        0.2358       
  0.0689       7 (A1) A      7 (A1) B    ->    10 (A1) B     10 (A1) A    
              -0.0843       -0.0843            0.2358        0.2358       
  0.0689       7 (A1) B      7 (A1) A    ->    10 (A1) A     10 (A1) B    
              -0.0843       -0.0843            0.2358        0.2358       
 -0.0689       7 (A1) B      7 (A1) A    ->    10 (A1) B     10 (A1) A    
              -0.0843       -0.0843            0.2358        0.2358       

 Computing CCSD intermediates for later calculations in double precision
 Finished.

Running a double precision version
           CCSD Lambda amplitudes will be solved using DIIS.
           Start     Size      MaxIter   EConv     LConv     
           3         7         100       1.00e-06  1.00e-04  
 ------------------------------------------------------------------------------
            Enorm      Ldiff       Comment
 ------------------------------------------------------------------------------
     1     2.64e-01   5.95e-02     
     2     2.54e-01   1.07e-01     
     3     3.00e-01   1.00e-01     
     4     4.21e-02   7.45e-02     Switched to DIIS steps.
     5     2.75e-02   5.70e-03     
     6     1.61e-02   5.36e-03     
     7     8.85e-03   1.14e-03     
     8     6.68e-03   8.48e-05     
     9     3.67e-03   2.39e-04     
    10     2.42e-03   2.45e-04     
    11     1.82e-03   5.20e-04     
    12     8.06e-04   2.38e-04     
    13     5.45e-04   1.28e-04     
    14     4.35e-04   6.53e-05     
    15     2.13e-04   8.37e-07     
    16     1.36e-04   2.32e-05     
    17     7.72e-05   7.56e-06     
    18     4.67e-05   2.73e-06     
    19     3.40e-05   1.80e-06     
    20     2.46e-05   3.43e-06     
    21     1.60e-05   7.84e-07     
    22     9.17e-06   2.34e-06     
    23     6.54e-06   1.49e-06     
    24     4.02e-06   1.01e-07     
    25     2.54e-06   7.67e-07     
    26     9.72e-07   3.82e-07     
 ------------------------------------------------------------------------------
                                   CCSD Lambda converged.


 CCSD  CPU 19.23 s  wall 19.28 s
        Solving for EOMIP-CCSD A1 transitions.

Running a double precision version
      EOMIP-CCSD/MP2 right amplitudes will be solved using Davidson.
        Amplitudes will be solved using standard  algorithm.
     Hard-coded thresholds: 
     LinDepThresh=1.00e-15  NormThresh=1.00e-06  ReorthogonThresh=1.00e-02

      Roots     MaxVec    MaxIter   Precond   Conv      Shift    
      1         120       60        1         1.00e-06  0.00e+00  
 ------------------------------------------------------------------------------
      Iter ConvRoots NVecs ResNorm^2 Current eigenvalues (eV)
 ------------------------------------------------------------------------------
      0    0      1     1.53e-01   5.3293   
      1    0      2     9.25e-02   3.5041   
      2    0      3     6.46e-03   2.5831   
      3    0      4     1.15e-03   2.4973   
      4    0      5     8.81e-05   2.4836   
      5    0      6     1.16e-05   2.4788   
      6    0      7     2.07e-06   2.4769   
      7    1      8     3.66e-07   2.4762*  

     Davidson procedure converged

 EOMIP transition 1/A1
 Total energy = -271.52885906 a.u.  Excitation energy = 2.4762 eV.
 R1^2 = 0.9229  R2^2 = 0.0771  Res^2 = 3.66e-07
 Conv-d = yes

 Amplitude    Transitions between orbitals
  0.9580       7 (A1) A                  ->    infty        
 -0.0675       6 (A1) A                  ->    infty        
  0.0252       4 (A1) A                  ->    infty        

              Summary of significant orbitals:

               Number  Type             Irrep      Energy
               6       Occ  Alpha       4 (A1)     -0.8840
               11      Occ  Alpha       6 (A1)     -0.2499
               14      Occ  Alpha       7 (A1)     -0.0843


Running a double precision version
      EOMIP-CCSD/MP2 left amplitudes will be solved using Davidson.
        Amplitudes will be solved using MOM  algorithm.
     Hard-coded thresholds: 
     LinDepThresh=1.00e-15  NormThresh=1.00e-06  ReorthogonThresh=1.00e-02

      Roots     MaxVec    MaxIter   Precond   Conv      Shift    
      1         120       60        1         1.00e-06  0.00e+00  
 ------------------------------------------------------------------------------
      Iter ConvRoots NVecs ResNorm^2 Current eigenvalues (eV)
 ------------------------------------------------------------------------------
      0    0      1     2.16e-02   2.4762   
      1    0      2     8.57e-03   2.4762   
      2    0      3     1.08e-03   2.4763   
      3    0      4     2.01e-04   2.4763   
      4    0      5     6.83e-05   2.4762   
      5    0      6     1.32e-05   2.4762   
      6    0      7     5.58e-06   2.4762   
      7    0      8     1.86e-06   2.4763   
      8    1      9     6.48e-07   2.4763*  

     Davidson procedure converged

        Solving for EOMIP-CCSD B1 transitions.

Running a double precision version
      EOMIP-CCSD/MP2 right amplitudes will be solved using Davidson.
        Amplitudes will be solved using standard  algorithm.
     Hard-coded thresholds: 
     LinDepThresh=1.00e-15  NormThresh=1.00e-06  ReorthogonThresh=1.00e-02

      Roots     MaxVec    MaxIter   Precond   Conv      Shift    
      1         120       60        1         1.00e-06  0.00e+00  
 ------------------------------------------------------------------------------
      Iter ConvRoots NVecs ResNorm^2 Current eigenvalues (eV)
 ------------------------------------------------------------------------------
      0    0      1     2.35e-01   6.6852   
      1    0      2     1.17e-01   3.3834   
      2    0      3     8.57e-03   1.9620   
      3    0      4     9.83e-04   1.8037   
      4    0      5     1.19e-04   1.7723   
      5    0      6     2.06e-05   1.7687   
      6    0      7     3.83e-06   1.7652   
      7    1      8     8.67e-07   1.7651*  

     Davidson procedure converged

 EOMIP transition 1/B1
 Total energy = -271.55499052 a.u.  Excitation energy = 1.7651 eV.
 R1^2 = 0.8970  R2^2 = 0.1030  Res^2 = 8.67e-07
 Conv-d = yes

 Amplitude    Transitions between orbitals
 -0.9427       3 (B1) A                  ->    infty        
 -0.0908       2 (B1) A                  ->    infty        

              Summary of significant orbitals:

               Number  Type             Irrep      Energy
               7       Occ  Alpha       2 (B1)     -0.3296
               12      Occ  Alpha       3 (B1)     -0.1201


Running a double precision version
      EOMIP-CCSD/MP2 left amplitudes will be solved using Davidson.
        Amplitudes will be solved using MOM  algorithm.
     Hard-coded thresholds: 
     LinDepThresh=1.00e-15  NormThresh=1.00e-06  ReorthogonThresh=1.00e-02

      Roots     MaxVec    MaxIter   Precond   Conv      Shift    
      1         120       60        1         1.00e-06  0.00e+00  
 ------------------------------------------------------------------------------
      Iter ConvRoots NVecs ResNorm^2 Current eigenvalues (eV)
 ------------------------------------------------------------------------------
      0    0      1     4.00e-02   1.7651   
      1    0      2     1.77e-02   1.7651   
      2    0      3     1.48e-03   1.7653   
      3    0      4     4.83e-04   1.7654   
      4    0      5     9.79e-05   1.7655   
      5    0      6     9.67e-06   1.7655   
      6    1      7     7.84e-07   1.7655*  

     Davidson procedure converged

        Solving for EOMIP-CCSD B2 transitions.

Running a double precision version
      EOMIP-CCSD/MP2 right amplitudes will be solved using Davidson.
        Amplitudes will be solved using standard  algorithm.
     Hard-coded thresholds: 
     LinDepThresh=1.00e-15  NormThresh=1.00e-06  ReorthogonThresh=1.00e-02

      Roots     MaxVec    MaxIter   Precond   Conv      Shift    
      1         120       60        1         1.00e-06  0.00e+00  
 ------------------------------------------------------------------------------
      Iter ConvRoots NVecs ResNorm^2 Current eigenvalues (eV)
 ------------------------------------------------------------------------------
      0    0      1     2.35e-01   6.6852   
      1    0      2     1.17e-01   3.3834   
      2    0      3     8.58e-03   1.9621   
      3    0      4     9.84e-04   1.8037   
      4    0      5     1.19e-04   1.7723   
      5    0      6     2.06e-05   1.7687   
      6    0      7     3.83e-06   1.7652   
      7    1      8     8.68e-07   1.7651*  

     Davidson procedure converged

 EOMIP transition 1/B2
 Total energy = -271.55499052 a.u.  Excitation energy = 1.7651 eV.
 R1^2 = 0.8970  R2^2 = 0.1030  Res^2 = 8.68e-07
 Conv-d = yes

 Amplitude    Transitions between orbitals
 -0.9427       3 (B2) A                  ->    infty        
  0.0908       2 (B2) A                  ->    infty        

              Summary of significant orbitals:

               Number  Type             Irrep      Energy
               8       Occ  Alpha       2 (B2)     -0.3296
               13      Occ  Alpha       3 (B2)     -0.1201


Running a double precision version
      EOMIP-CCSD/MP2 left amplitudes will be solved using Davidson.
        Amplitudes will be solved using MOM  algorithm.
     Hard-coded thresholds: 
     LinDepThresh=1.00e-15  NormThresh=1.00e-06  ReorthogonThresh=1.00e-02

      Roots     MaxVec    MaxIter   Precond   Conv      Shift    
      1         120       60        1         1.00e-06  0.00e+00  
 ------------------------------------------------------------------------------
      Iter ConvRoots NVecs ResNorm^2 Current eigenvalues (eV)
 ------------------------------------------------------------------------------
      0    0      1     4.00e-02   1.7651   
      1    0      2     1.77e-02   1.7651   
      2    0      3     1.48e-03   1.7653   
      3    0      4     4.83e-04   1.7654   
      4    0      5     9.79e-05   1.7655   
      5    0      6     9.67e-06   1.7655   
      6    1      7     7.83e-07   1.7655*  

     Davidson procedure converged


 EOMIP-CCSD  CPU 4.16 s  wall 4.20 s

 Start computing the transition properties

 ------------------------------------------------------------------------------
 State A: ccsd: 0/A1
 State B: eomip_ccsd/a: 1/A1

       ***    Dyson orbital calculation   *** 

 Reference -- EOM-IP-CCSD state  1/A1   transition
 Energy difference = -2.4762 eV.

 Left Dyson orbital norm is 0.9734

Left alpha Dyson orbital in the MO basis (canonical Q-Chem's ordering):
0  -3.7492e-16 
1  -8.8765e-16 
2  1.6021e-16  
3  5.6645e-17  
4  9.5568e-17  
5  1.5760e-02  
6  1.7253e-16  
7  -1.7994e-16 
8  -1.1699e-16 
9  3.7896e-09  
10 -1.3714e-01 
11 8.6503e-17  
12 -2.8657e-17 
13 9.7042e-01  
14 -8.7893e-02 
15 -3.4021e-16 
16 5.7155e-16  
17 3.7032e-02  
18 1.5917e-01  
19 -3.9231e-16 
20 2.8438e-17  
21 -2.6556e-02 
22 -1.2376e-09 
23 -1.3046e-16 
24 -2.8300e-16 
25 1.3291e-16  
26 4.1371e-02  
27 1.3631e-03  
28 -9.4023e-17 
29 3.0552e-16  
30 4.6524e-02  
31 1.2984e-16  
32 -1.2428e-15 
33 6.1052e-03  
34 -1.0539e-02 
35 4.5381e-16  
36 -1.0137e-09 
37 3.3368e-16  
38 7.8634e-17  
39 -2.3102e-16 
40 -1.4953e-10 
41 4.4754e-03  
42 -9.9514e-17 
43 4.1504e-17  
44 9.3843e-04  
45 -1.3695e-16 
46 3.5274e-16  
47 2.2201e-03  
48 5.6330e-03  
49 1.3549e-15  
50 2.8449e-15  
51 -5.0797e-17 
52 2.5378e-16  
53 -6.9407e-10 
54 1.6718e-17  
55 2.1729e-03  
56 -5.1499e-16 
57 5.6497e-16  
58 -2.1159e-03 
59 -3.9922e-11 
60 -3.8548e-17 
61 6.3712e-17  
62 2.3250e-16  
63 -1.2579e-04 
64 -9.6728e-17 
65 6.8682e-11  
66 -1.6827e-16 
67 -4.0324e-17 
68 -6.7473e-04 
69 2.0792e-16  
70 1.9583e-16  
71 2.8481e-10  
72 1.7041e-16  
73 -1.3070e-16 
74 7.2150e-18  
75 4.1959e-04  
76 -1.0519e-04 

Decomposition over AOs for the left alpha Dyson orbital:
2.81683601e-03
-8.44160150e-01
7.62010796e-02
1.15442635e-03
-1.03450947e-01
2.61741172e-15
4.87390669e-16
1.90430124e-02
-2.35859781e-14
1.70848261e-14
-4.49532781e-02
4.72449955e-14
-2.13543686e-14
8.36156087e-02
-2.42230803e-14
1.42599106e-14
2.36091911e-02
1.73482336e-15
1.85393272e-15
4.60466570e-02
2.15498207e-15
4.98394658e-15
3.66901353e-01
3.81808720e-15
4.54909975e-09
5.45362087e-17
-6.77213525e-17
1.62088185e-04
3.48418443e-16
2.28514406e-10
7.07622212e-17
-5.95284635e-16
7.06102235e-03
-9.06061626e-16
-1.12769700e-09
-1.16201636e-15
7.98219930e-15
2.75880516e-02
4.49783208e-15
-6.16115062e-10
-1.88040530e-17
5.17605553e-17
-9.11936395e-17
-6.61522050e-04
1.09281555e-16
3.16929905e-10
3.90654964e-17
1.36367503e-16
6.59380408e-17
9.40617081e-16
-8.30480590e-03
-9.51504151e-16
4.95822385e-10
-4.45526181e-17
3.19882161e-04
9.71662396e-02
2.06903207e-02
1.63212688e-01
-6.89958577e-15
-1.17442472e-14
3.79712481e-01
1.10681413e-16
2.72231209e-16
1.60932727e-03
-1.06865662e-14
-2.05889005e-14
3.14262200e-02
-2.50670278e-16
-2.63754278e-16
-1.54627744e-03
7.12133238e-18
-8.56554038e-11
-5.71663957e-17
1.03131538e-15
4.10371806e-03
3.12118885e-16
-5.73112255e-10
   *****

 Right Dyson orbital norm is 0.9296

Right alpha Dyson orbital in the MO basis (canonical Q-Chem's ordering):
0  -4.8808e-16 
1  -8.6170e-16 
2  2.4351e-16  
3  3.6136e-17  
4  1.3305e-16  
5  2.8747e-02  
6  1.8432e-16  
7  -1.2875e-16 
8  -1.0629e-16 
9  -8.3031e-09 
10 -7.7130e-02 
11 5.2328e-17  
12 2.0861e-17  
13 9.9554e-01  
14 3.4716e-02  
15 -3.8021e-16 
16 6.4345e-16  
17 -2.2072e-03 
18 1.2527e-02  
19 -4.2674e-16 
20 6.0906e-17  
21 -3.3408e-03 
22 6.5495e-10  
23 -1.3061e-16 
24 -4.7363e-16 
25 2.6096e-16  
26 1.8668e-03  
27 -2.4667e-03 
28 -2.0901e-16 
29 2.9403e-16  
30 2.5000e-02  
31 2.9939e-16  
32 -1.4969e-15 
33 5.1435e-03  
34 -6.0229e-03 
35 5.2354e-16  
36 1.1576e-09  
37 5.5012e-16  
38 1.3292e-16  
39 -2.9110e-16 
40 1.5065e-10  
41 -2.1668e-04 
42 -1.6844e-16 
43 8.9703e-17  
44 -1.2234e-03 
45 2.2060e-17  
46 5.8277e-16  
47 2.1671e-03  
48 4.7329e-03  
49 9.2487e-16  
50 3.4797e-15  
51 -2.0860e-17 
52 2.7918e-16  
53 -6.9479e-11 
54 7.4986e-17  
55 2.0177e-03  
56 -4.9748e-16 
57 6.4669e-16  
58 -2.4630e-03 
59 1.0070e-10  
60 3.4739e-17  
61 6.0542e-17  
62 2.7600e-16  
63 -1.0837e-04 
64 -1.1643e-16 
65 3.5005e-10  
66 -2.4663e-16 
67 -5.0483e-17 
68 -1.1828e-03 
69 2.1494e-16  
70 2.0907e-16  
71 -8.0660e-11 
72 1.7305e-16  
73 -1.8837e-16 
74 -9.3222e-18 
75 3.9470e-04  
76 -1.7142e-04 

Decomposition over AOs for the right alpha Dyson orbital:
3.85903190e-03
-8.03292957e-01
1.27137139e-01
-6.56816389e-03
-5.03541798e-02
2.01073403e-15
3.22924388e-16
3.62225932e-02
-2.06797702e-14
1.35898768e-14
-4.28996322e-02
3.91054342e-14
-1.92504912e-14
1.35535735e-02
-1.56850229e-14
7.89387428e-15
7.80106253e-03
-4.97088219e-17
-4.35931773e-16
2.44106732e-02
1.42871048e-15
5.36218180e-15
4.03268746e-01
3.62721432e-15
-8.55295921e-09
8.53241153e-17
-2.24835547e-16
-1.77081955e-03
6.97427601e-16
6.69708379e-10
-1.05581758e-16
1.95135221e-17
6.06801371e-03
-2.11404415e-15
4.04485655e-10
-3.57677695e-17
2.52407790e-15
2.92718852e-02
1.02100472e-14
3.44397485e-12
-2.76032596e-17
5.10297386e-17
-1.22438109e-16
-8.18887662e-04
1.07199893e-16
-8.65200396e-11
5.28525364e-17
1.22875591e-16
2.73323550e-17
8.92819161e-16
-1.07472456e-02
-8.98237230e-16
1.88521407e-10
-5.71429240e-17
8.91680077e-04
1.10717832e-01
1.96320528e-02
1.66214581e-01
-9.33187995e-15
-1.41030156e-14
5.05206548e-01
-1.83554143e-15
-1.59892996e-15
1.31918227e-02
-9.32621005e-15
-4.92488327e-15
5.27977109e-02
-2.33370353e-16
-9.80229436e-17
-2.92537503e-03
7.88447352e-17
8.85740504e-11
-6.29617127e-17
8.70130642e-16
1.36584197e-03
-3.88290595e-17
5.94997309e-10
   *****

g1p_r_b_a from Dyson code   3.5872e-03
  -7.4672e-01
   1.1818e-01
  -6.1056e-03
  -4.6808e-02
   1.8691e-15
   3.0018e-16
   3.3671e-02
  -1.9223e-14
   1.2633e-14
  -3.9878e-02
   3.6351e-14
  -1.7895e-14
   1.2599e-02
  -1.4580e-14
   7.3379e-15
   7.2516e-03
  -4.6208e-17
  -4.0523e-16
   2.2691e-02
   1.3281e-15
   4.9845e-15
   3.7487e-01
   3.3718e-15
  -7.9506e-09
   7.9315e-17
  -2.0900e-16
  -1.6461e-03
   6.4831e-16
   6.2254e-10
  -9.8146e-17
   1.8139e-17
   5.6406e-03
  -1.9652e-15
   3.7600e-10
  -3.3249e-17
   2.3463e-15
   2.7210e-02
   9.4910e-15
   3.2014e-12
  -2.5659e-17
   4.7436e-17
  -1.1381e-16
  -7.6121e-04
   9.9650e-17
  -8.0426e-11
   4.9130e-17
   1.1422e-16
   2.5407e-17
   8.2994e-16
  -9.9903e-03
  -8.3497e-16
   1.7524e-10
  -5.3118e-17
   8.2888e-04
   1.0292e-01
   1.8249e-02
   1.5451e-01
  -8.6746e-15
  -1.3110e-14
   4.6962e-01
  -1.7063e-15
  -1.4863e-15
   1.2263e-02
  -8.6694e-15
  -4.5780e-15
   4.9079e-02
  -2.1693e-16
  -9.1119e-17
  -2.7193e-03
   7.3292e-17
   8.2336e-11
  -5.8527e-17
   8.0885e-16
   1.2696e-03
  -3.6094e-17
   5.5309e-10

     End transition

 ------------------------------------------------------------------------------
 State A: ccsd: 0/A1
 State B: eomip_ccsd/a: 1/B1

       ***    Dyson orbital calculation   *** 

 Reference -- EOM-IP-CCSD state  1/B1   transition
 Energy difference = -1.7651 eV.

 Left Dyson orbital norm is 0.9250

Left alpha Dyson orbital in the MO basis (canonical Q-Chem's ordering):
0  2.5087e-16  
1  6.3570e-17  
2  -2.6953e-17 
3  -2.4683e-17 
4  -3.1864e-17 
5  -8.4608e-17 
6  -1.0517e-01 
7  -8.9888e-17 
8  1.7067e-16  
9  6.0186e-16  
10 -3.2127e-16 
11 -9.8253e-01 
12 1.8162e-15  
13 -1.3648e-16 
14 -6.0917e-17 
15 8.7040e-02  
16 -1.4985e-15 
17 1.9685e-16  
18 -3.0266e-16 
19 1.0622e-01  
20 -1.2714e-15 
21 2.3045e-16  
22 -2.6789e-16 
23 2.2449e-16  
24 -5.7363e-02 
25 -1.1584e-15 
26 -1.1812e-16 
27 -4.6505e-16 
28 1.5366e-02  
29 -6.4090e-16 
30 -8.5613e-16 
31 -3.0818e-02 
32 2.2491e-15  
33 -2.5292e-16 
34 -6.5148e-16 
35 6.9564e-17  
36 -1.8637e-17 
37 -9.5359e-03 
38 -9.6496e-16 
39 4.1238e-16  
40 -6.4702e-16 
41 3.6706e-16  
42 -5.3593e-03 
43 -8.1409e-16 
44 -2.6819e-16 
45 1.0237e-02  
46 -6.2672e-16 
47 8.3683e-16  
48 1.1989e-15  
49 -1.2410e-03 
50 -3.9743e-15 
51 8.5604e-10  
52 -5.8281e-16 
53 1.3690e-16  
54 4.8291e-16  
55 -1.3312e-15 
56 2.2339e-04  
57 -4.8313e-16 
58 1.9180e-15  
59 -3.6166e-16 
60 -2.1698e-16 
61 6.7218e-04  
62 -1.9851e-16 
63 2.5099e-16  
64 3.7929e-18  
65 3.8338e-16  
66 -2.3430e-03 
67 6.9785e-16  
68 3.7778e-16  
69 -5.3306e-10 
70 2.6914e-16  
71 1.2323e-16  
72 4.2481e-16  
73 9.2093e-05  
74 4.0814e-16  
75 -2.0625e-16 
76 3.2292e-15  

Decomposition over AOs for the left alpha Dyson orbital:
3.28874313e-16
-3.33496034e-15
1.64696964e-13
2.08116690e-15
-1.10721182e-14
-3.92677534e-02
8.45616805e-17
-3.12285122e-15
-6.35514044e-03
-7.12018444e-15
8.05790473e-15
2.24451844e-01
1.56007133e-14
-3.97047781e-14
-1.67383195e-02
-7.97721882e-15
1.49560514e-13
5.77952419e-02
1.08453927e-15
-1.16047452e-14
1.91120792e-15
-7.73733204e-16
-1.53127795e-15
-3.74720372e-01
-1.36669792e-15
2.60535889e-17
1.47750931e-16
5.48962605e-16
-8.61324515e-04
-1.95388245e-16
2.31000504e-15
-5.79539922e-16
-7.39336323e-15
-7.77638753e-03
-8.55000428e-17
-1.49458444e-14
-1.05359434e-15
6.34606496e-14
-3.46011603e-02
-1.30571521e-15
-1.52468458e-17
6.83568851e-17
-5.64412754e-17
4.99810423e-17
5.44486930e-04
1.72315692e-17
6.38270907e-10
1.77925947e-17
-3.35611776e-17
1.30666930e-16
-2.15425433e-16
9.65162970e-03
1.93506973e-17
-1.17833323e-09
-1.15958665e-15
-4.17720741e-16
1.42901594e-14
-2.09675347e-13
7.16525741e-01
1.00441894e-14
5.02055686e-15
6.38913666e-02
-4.79125998e-16
-5.21147492e-15
2.00796320e-01
4.03198203e-15
3.49887218e-14
-1.29187528e-16
3.92693182e-17
-2.09659276e-16
-4.18305449e-03
-3.03225438e-17
7.74488202e-16
-4.91249516e-17
4.07730923e-15
-1.83280211e-02
5.20602657e-16
   *****

 Right Dyson orbital norm is 0.9280

Right alpha Dyson orbital in the MO basis (canonical Q-Chem's ordering):
0  2.6923e-16  
1  7.5150e-17  
2  -2.9458e-17 
3  -5.7164e-17 
4  -3.5388e-17 
5  -9.6949e-17 
6  -9.9505e-02 
7  -1.0462e-16 
8  1.8688e-16  
9  5.7172e-16  
10 -2.8639e-16 
11 -9.9325e-01 
12 1.8069e-15  
13 -8.9157e-17 
14 -9.7213e-17 
15 2.8909e-02  
16 -1.5815e-15 
17 2.5282e-16  
18 -3.1957e-16 
19 4.2444e-02  
20 -1.3888e-15 
21 3.8362e-16  
22 -2.5316e-16 
23 2.4273e-16  
24 -2.3268e-02 
25 -1.2852e-15 
26 -9.1104e-17 
27 -4.7385e-16 
28 7.1615e-03  
29 -7.2553e-16 
30 -8.4853e-16 
31 -1.6077e-02 
32 2.3257e-15  
33 -3.5313e-16 
34 -5.9128e-16 
35 7.1511e-17  
36 5.3004e-18  
37 -4.4343e-03 
38 -1.0742e-15 
39 3.6760e-16  
40 -6.0044e-16 
41 3.0062e-16  
42 -4.4315e-03 
43 -8.1226e-16 
44 -2.6616e-16 
45 5.0252e-03  
46 -6.9416e-16 
47 7.2408e-16  
48 1.2566e-15  
49 -1.1121e-03 
50 -4.0248e-15 
51 1.8919e-09  
52 -5.9803e-16 
53 1.1761e-16  
54 4.9514e-16  
55 -1.2384e-15 
56 6.5262e-04  
57 -4.9521e-16 
58 1.7708e-15  
59 -3.3085e-16 
60 -2.3401e-16 
61 5.0423e-04  
62 -2.5930e-16 
63 1.3902e-16  
64 6.6223e-18  
65 2.5891e-16  
66 -1.0828e-03 
67 7.7827e-16  
68 3.4570e-16  
69 -7.3226e-10 
70 2.9538e-16  
71 1.6325e-16  
72 4.2893e-16  
73 -2.4569e-05 
74 4.4519e-16  
75 -1.8743e-16 
76 3.5989e-15  

Decomposition over AOs for the right alpha Dyson orbital:
1.03592157e-16
-5.81972234e-15
8.18574859e-14
1.27371952e-15
-7.36789917e-15
-3.61566170e-02
8.65745417e-17
-1.55613578e-15
1.86874955e-03
-6.23925440e-15
5.47235750e-15
1.81901127e-01
1.41098088e-14
-2.40922044e-14
-3.48739798e-02
-7.81578655e-15
7.38684569e-14
2.51496624e-02
1.71467137e-15
-6.15295520e-15
8.56311864e-16
-1.10731589e-15
1.29823900e-15
-3.85857047e-01
-1.49725417e-15
2.32222208e-18
1.75187911e-16
3.64988633e-16
1.36540431e-03
-8.94426195e-17
1.12924353e-15
-4.25654993e-16
-3.60182752e-15
-5.25477146e-04
-1.14300558e-16
-6.80655073e-15
-6.29621637e-16
2.91940791e-14
-2.30089870e-02
-6.14531540e-16
-2.34467655e-17
7.97351891e-17
-5.08487529e-17
8.79846310e-18
4.76232904e-04
1.85161207e-17
8.89589895e-10
-7.57192691e-18
-1.60365605e-17
3.87429584e-17
-1.62113259e-16
9.34781514e-03
1.03116877e-17
-2.34098590e-09
-7.73039003e-16
-6.54630781e-16
8.86366927e-15
-9.91973544e-14
7.62587340e-01
1.03667931e-14
6.05232635e-15
6.40185595e-02
1.64147935e-16
-2.93380795e-15
1.81053434e-01
2.76965944e-15
1.88953511e-14
-6.89835221e-17
7.66481233e-17
-1.79744907e-16
-4.50762041e-03
-1.25739786e-17
5.77775919e-16
-2.89940224e-16
2.01440663e-15
-1.76001042e-02
2.89323614e-16
   *****

g1p_r_b_a from Dyson code   9.6138e-17
  -5.4010e-15
   7.5967e-14
   1.1821e-15
  -6.8377e-15
  -3.3555e-02
   8.0345e-17
  -1.4442e-15
   1.7343e-03
  -5.7903e-15
   5.0786e-15
   1.6881e-01
   1.3095e-14
  -2.2359e-14
  -3.2365e-02
  -7.2534e-15
   6.8553e-14
   2.3340e-02
   1.5913e-15
  -5.7102e-15
   7.9470e-16
  -1.0276e-15
   1.2048e-15
  -3.5809e-01
  -1.3895e-15
   2.1551e-18
   1.6258e-16
   3.3873e-16
   1.2672e-03
  -8.3007e-17
   1.0480e-15
  -3.9503e-16
  -3.3427e-15
  -4.8767e-04
  -1.0608e-16
  -6.3168e-15
  -5.8432e-16
   2.7093e-14
  -2.1353e-02
  -5.7031e-16
  -2.1760e-17
   7.3998e-17
  -4.7190e-17
   8.1654e-18
   4.4197e-04
   1.7184e-17
   8.2558e-10
  -7.0271e-18
  -1.4883e-17
   3.5955e-17
  -1.5045e-16
   8.6752e-03
   9.5697e-18
  -2.1725e-09
  -7.1741e-16
  -6.0753e-16
   8.2259e-15
  -9.2060e-14
   7.0771e-01
   9.6208e-15
   5.6168e-15
   5.9412e-02
   1.5234e-16
  -2.7227e-15
   1.6803e-01
   2.5704e-15
   1.7536e-14
  -6.4020e-17
   7.1133e-17
  -1.6681e-16
  -4.1833e-03
  -1.1669e-17
   5.3620e-16
  -2.6908e-16
   1.8695e-15
  -1.6334e-02
   2.6851e-16

     End transition

 ------------------------------------------------------------------------------
 State A: ccsd: 0/A1
 State B: eomip_ccsd/a: 1/B2

       ***    Dyson orbital calculation   *** 

 Reference -- EOM-IP-CCSD state  1/B2   transition
 Energy difference = -1.7651 eV.

 Left Dyson orbital norm is 0.9250

Left alpha Dyson orbital in the MO basis (canonical Q-Chem's ordering):
0  -2.4817e-16 
1  -1.2254e-16 
2  2.3208e-16  
3  -2.4175e-16 
4  -2.4955e-16 
5  -1.2068e-16 
6  6.1079e-17  
7  1.0517e-01  
8  4.0827e-17  
9  4.9079e-17  
10 1.2323e-18  
11 1.7816e-15  
12 -9.8253e-01 
13 5.6671e-17  
14 -2.2366e-16 
15 -2.4984e-16 
16 8.7040e-02  
17 7.4256e-16  
18 -4.3362e-16 
19 -4.2163e-16 
20 -1.0622e-01 
21 5.5256e-16  
22 6.5176e-17  
23 -1.1833e-17 
24 -5.8613e-16 
25 -5.7363e-02 
26 1.0406e-15  
27 7.0215e-17  
28 -1.0342e-15 
29 1.5366e-02  
30 1.1285e-15  
31 1.5891e-17  
32 -3.0818e-02 
33 -6.3048e-16 
34 1.1662e-15  
35 1.9644e-16  
36 1.0008e-16  
37 1.7254e-16  
38 9.5359e-03  
39 -1.4436e-16 
40 1.1914e-17  
41 -7.6108e-16 
42 6.2278e-17  
43 5.3593e-03  
44 4.4655e-16  
45 -8.3354e-16 
46 1.0237e-02  
47 -5.0025e-16 
48 -1.5278e-16 
49 1.0683e-15  
50 -1.2410e-03 
51 -2.7871e-16 
52 -9.8582e-10 
53 -9.8596e-17 
54 1.4054e-16  
55 5.9328e-16  
56 -4.6016e-16 
57 -2.2339e-04 
58 -2.9224e-16 
59 7.7365e-17  
60 -2.6535e-16 
61 -1.9734e-16 
62 -6.7218e-04 
63 -9.9835e-16 
64 -5.0567e-16 
65 -2.4743e-16 
66 -1.3397e-15 
67 2.3430e-03  
68 5.1220e-16  
69 -1.6868e-16 
70 -6.0281e-10 
71 1.5564e-16  
72 5.1115e-16  
73 -2.3636e-16 
74 9.2093e-05  
75 -3.9403e-17 
76 5.7174e-15  

Decomposition over AOs for the left alpha Dyson orbital:
-6.94442091e-16
1.54322894e-14
-8.16556534e-15
-6.85466315e-15
6.89892231e-16
-2.00622426e-16
3.92677557e-02
2.24687311e-15
-4.36093808e-15
6.35512242e-03
-4.95935142e-15
8.22533601e-15
-2.24451787e-01
2.46997604e-14
-3.21570989e-15
1.67383041e-02
-1.11146717e-14
-1.76453278e-15
-5.77952387e-02
4.37137048e-15
8.80681088e-16
3.74719945e-01
-3.69808251e-15
-1.51255806e-15
-1.18363905e-15
-6.60329875e-16
8.61318631e-04
-3.95923740e-16
1.25755553e-16
-6.15662073e-17
5.12234002e-17
7.77636248e-03
4.10606528e-15
-1.11220031e-15
-7.24981056e-17
3.56537965e-15
3.46011275e-02
-6.58705002e-17
6.74935290e-16
1.37075857e-16
7.21917942e-10
-9.58442026e-17
-5.44486028e-04
-1.40521424e-16
-4.12238088e-18
9.05886080e-18
3.18989045e-17
-1.34958316e-09
1.13568400e-16
-9.65162476e-03
9.67601693e-16
-1.49803523e-16
2.91498133e-17
2.18169470e-16
8.46891069e-16
-1.59381904e-16
-1.15497001e-14
1.52600728e-15
9.82951747e-15
-7.16525899e-01
-5.66361030e-15
-1.74915127e-15
-6.38913608e-02
8.08100817e-15
3.70655324e-15
-2.00796324e-01
-1.94113959e-14
1.43967332e-16
4.18305726e-03
2.85210011e-16
-3.39097891e-17
-2.75850999e-17
-6.90926008e-17
1.83280178e-02
-1.88694495e-15
-3.68335650e-16
6.41325405e-17
   *****

 Right Dyson orbital norm is 0.9280

Right alpha Dyson orbital in the MO basis (canonical Q-Chem's ordering):
0  -2.7026e-16 
1  -1.2247e-16 
2  2.0794e-16  
3  -2.4369e-16 
4  -2.8632e-16 
5  -1.1622e-16 
6  -1.5728e-17 
7  9.9505e-02  
8  5.8295e-17  
9  5.1098e-17  
10 7.1349e-18  
11 1.8025e-15  
12 -9.9325e-01 
13 5.8625e-18  
14 -2.4427e-16 
15 -2.4183e-16 
16 2.8909e-02  
17 6.8642e-16  
18 -4.1028e-16 
19 -4.2338e-16 
20 -4.2444e-02 
21 3.8976e-16  
22 6.4883e-17  
23 3.1774e-18  
24 -6.6130e-16 
25 -2.3268e-02 
26 1.0240e-15  
27 -1.0342e-16 
28 -1.0458e-15 
29 7.1615e-03  
30 9.4466e-16  
31 -2.4131e-17 
32 -1.6077e-02 
33 -4.7679e-16 
34 1.0532e-15  
35 2.0946e-16  
36 1.0819e-16  
37 1.5061e-16  
38 4.4343e-03  
39 -1.5638e-16 
40 1.3726e-17  
41 -7.4050e-16 
42 1.2866e-17  
43 4.4315e-03  
44 4.0206e-16  
45 -8.5400e-16 
46 5.0253e-03  
47 -2.9198e-16 
48 -1.4513e-16 
49 1.2237e-15  
50 -1.1121e-03 
51 -2.5504e-16 
52 -1.7518e-09 
53 -1.0705e-16 
54 1.3944e-16  
55 6.2146e-16  
56 -4.9941e-16 
57 -6.5262e-04 
58 -5.0838e-16 
59 8.5011e-17  
60 -2.4886e-16 
61 -2.3704e-16 
62 -5.0423e-04 
63 -1.0241e-15 
64 -5.1790e-16 
65 -2.6751e-16 
66 -1.3984e-15 
67 1.0828e-03  
68 5.0894e-16  
69 -1.3243e-16 
70 -7.0930e-10 
71 1.7310e-16  
72 5.5212e-16  
73 -2.0021e-16 
74 -2.4567e-05 
75 -2.8515e-18 
76 4.9324e-15  

Decomposition over AOs for the right alpha Dyson orbital:
-5.67517534e-16
1.37168744e-14
-2.61636403e-15
-3.83592093e-15
-1.23809657e-15
-1.96478612e-16
3.61566216e-02
7.36131034e-16
-3.01992063e-15
-1.86879450e-03
-6.45379424e-16
6.14249301e-15
-1.81901093e-01
1.05292060e-14
-3.64010491e-15
3.48739665e-02
-5.97244272e-15
-9.95646768e-16
-2.51496640e-02
1.78901003e-15
1.20846480e-15
3.85856779e-01
-5.51793273e-15
-1.75974668e-15
-1.12521797e-15
-2.91605802e-16
-1.36540925e-03
-5.05743184e-17
1.05295127e-16
-3.53994058e-17
9.30025278e-17
5.25478068e-04
1.74917271e-15
-7.09962143e-16
-4.01156839e-17
1.70629576e-15
2.30089831e-02
7.71045511e-16
-1.38766219e-16
-7.78683915e-18
8.60088397e-10
-9.17465035e-17
-4.76234032e-04
-7.64734718e-17
-4.10458015e-18
9.42446733e-18
2.19693069e-17
-2.18539923e-09
9.33836303e-17
-9.34782368e-03
7.87127947e-16
-2.49434071e-16
2.37541421e-17
1.59799919e-16
5.59960385e-16
-1.17852092e-16
-6.98058506e-15
-3.80705740e-16
1.00430907e-14
-7.62587387e-01
-7.94540820e-15
-9.18810199e-16
-6.40185831e-02
3.20769696e-15
3.19677164e-15
-1.81053453e-01
-8.60204916e-15
1.36939993e-16
4.50762642e-03
2.89632175e-16
-7.90791320e-18
-2.68936331e-17
-3.93183828e-17
1.76001171e-02
-1.03227060e-15
-6.25103850e-16
1.33959388e-17
   *****

g1p_r_b_a from Dyson code  -5.2668e-16
   1.2730e-14
  -2.4281e-15
  -3.5599e-15
  -1.1490e-15
  -1.8234e-16
   3.3555e-02
   6.8316e-16
  -2.8026e-15
  -1.7343e-03
  -5.9894e-16
   5.7005e-15
  -1.6881e-01
   9.7716e-15
  -3.3782e-15
   3.2365e-02
  -5.5427e-15
  -9.2400e-16
  -2.3340e-02
   1.6603e-15
   1.1215e-15
   3.5809e-01
  -5.1209e-15
  -1.6331e-15
  -1.0443e-15
  -2.7062e-16
  -1.2672e-03
  -4.6935e-17
   9.7719e-17
  -3.2852e-17
   8.6310e-17
   4.8767e-04
   1.6233e-15
  -6.5888e-16
  -3.7229e-17
   1.5835e-15
   2.1353e-02
   7.1556e-16
  -1.2878e-16
  -7.2265e-18
   7.9820e-10
  -8.5145e-17
  -4.4197e-04
  -7.0971e-17
  -3.8092e-18
   8.7463e-18
   2.0388e-17
  -2.0281e-09
   8.6664e-17
  -8.6752e-03
   7.3049e-16
  -2.3149e-16
   2.2045e-17
   1.4830e-16
   5.1967e-16
  -1.0937e-16
  -6.4783e-15
  -3.5331e-16
   9.3204e-15
  -7.0771e-01
  -7.3737e-15
  -8.5270e-16
  -5.9412e-02
   2.9769e-15
   2.9667e-15
  -1.6803e-01
  -7.9831e-15
   1.2709e-16
   4.1833e-03
   2.6879e-16
  -7.3389e-18
  -2.4958e-17
  -3.6489e-17
   1.6334e-02
  -9.5799e-16
  -5.8012e-16
   1.2432e-17

     End transition


 All requested transition properties have been computed


 Transition Properties  CPU 0.21 s  wall 0.21 s
 Total ccman2 time:   CPU 29.83 s  wall 30.05 s

 
 --------------------------------------------------------------
             Orbital Energies (a.u.) and Symmetries
 --------------------------------------------------------------
 
 Alpha MOs, Restricted
 -- Occupied --                  
-20.241  -5.054  -3.257  -3.247  -3.247  -0.884  -0.330  -0.330
  1 A1    2 A1    3 A1    1 B1    1 B2    4 A1    2 B1    2 B2                 
 -0.298  -0.298  -0.250  -0.120  -0.120  -0.084
  1 A2    5 A1    6 A1    3 B1    3 B2    7 A1                                 
 -- Virtual --                   
  0.131   0.150   0.150   0.161   0.236   0.309   0.309   0.334
  8 A1    4 B1    4 B2    9 A1   10 A1    5 B1    5 B2   11 A1                 
  0.457   0.457   0.462   0.462   0.468   0.539   0.541   0.541
 12 A1    2 A2    6 B1    6 B2   13 A1   14 A1    7 B1    7 B2                 
  0.576   0.728   0.728   0.752   1.107   1.289   1.289   1.364
 15 A1    8 B1    8 B2   16 A1   17 A1    3 A2   18 A1    9 B1                 
  1.364   1.382   1.382   1.520   1.558   1.558   1.713   1.838
  9 B2    4 A2   19 A1   20 A1   10 B1   10 B2   21 A1   11 B1                 
  1.838   2.309   2.847   3.185   3.185   3.263   3.263   3.283
 11 B2   22 A1   23 A1   12 B1   12 B2   13 B1   13 B2   24 A1                 
  3.283   3.431   3.484   3.484   3.831   3.957   3.957   4.044
  5 A2   25 A1   14 B1   14 B2   26 A1   27 A1    6 A2   15 B1                 
  4.044   4.346   4.895   4.895   4.954   4.954   5.149   9.254
 15 B2   28 A1    7 A2   29 A1   16 B1   16 B2   30 A1   17 B1                 
  9.254   9.259   9.259   9.376   9.376   9.480  26.444
 17 B2   31 A1    8 A2   18 B1   18 B2   32 A1   33 A1                         
 
 Beta MOs, Restricted
 -- Occupied --                  
-20.241  -5.054  -3.257  -3.247  -3.247  -0.884  -0.330  -0.330
  1 A1    2 A1    3 A1    1 B1    1 B2    4 A1    2 B1    2 B2                 
 -0.298  -0.298  -0.250  -0.120  -0.120  -0.084
  1 A2    5 A1    6 A1    3 B1    3 B2    7 A1                                 
 -- Virtual --                   
  0.131   0.150   0.150   0.161   0.236   0.309   0.309   0.334
  8 A1    4 B1    4 B2    9 A1   10 A1    5 B1    5 B2   11 A1                 
  0.457   0.457   0.462   0.462   0.468   0.539   0.541   0.541
 12 A1    2 A2    6 B1    6 B2   13 A1   14 A1    7 B1    7 B2                 
  0.576   0.728   0.728   0.752   1.107   1.289   1.289   1.364
 15 A1    8 B1    8 B2   16 A1   17 A1    3 A2   18 A1    9 B1                 
  1.364   1.382   1.382   1.520   1.558   1.558   1.713   1.838
  9 B2    4 A2   19 A1   20 A1   10 B1   10 B2   21 A1   11 B1                 
  1.838   2.309   2.847   3.185   3.185   3.263   3.263   3.283
 11 B2   22 A1   23 A1   12 B1   12 B2   13 B1   13 B2   24 A1                 
  3.283   3.431   3.484   3.484   3.831   3.957   3.957   4.044
  5 A2   25 A1   14 B1   14 B2   26 A1   27 A1    6 A2   15 B1                 
  4.044   4.346   4.895   4.895   4.954   4.954   5.149   9.254
 15 B2   28 A1    7 A2   29 A1   16 B1   16 B2   30 A1   17 B1                 
  9.254   9.259   9.259   9.376   9.376   9.480  26.444
 17 B2   31 A1    8 A2   18 B1   18 B2   32 A1   33 A1                         
 --------------------------------------------------------------
 
          Ground-State Mulliken Net Atomic Charges

     Atom                 Charge (a.u.)
  ----------------------------------------
      1 Cu                    0.037345
      2 O                    -1.037345
  ----------------------------------------
  Sum of atomic charges =    -1.000000

 -----------------------------------------------------------------
                    Cartesian Multipole Moments
 -----------------------------------------------------------------
    Charge (ESU x 10^10)
                -4.8032
    Dipole Moment (Debye)
         X      -0.0000      Y      -0.0000      Z      -6.6156
       Tot       6.6156
    Quadrupole Moments (Debye-Ang)
        XX     -23.9108     XY      -0.0000     YY     -23.9108
        XZ       0.0000     YZ       0.0000     ZZ     -29.9900
    Octopole Moments (Debye-Ang^2)
       XXX      -0.0000    XXY      -0.0000    XYY       0.0000
       YYY      -0.0000    XXZ      -4.4354    XYZ      -0.0000
       YYZ      -4.4354    XZZ      -0.0000    YZZ      -0.0000
       ZZZ     -24.0046
    Hexadecapole Moments (Debye-Ang^3)
      XXXX     -46.7422   XXXY      -0.0000   XXYY     -15.5807
      XYYY      -0.0000   YYYY     -46.7422   XXXZ       0.0000
      XXYZ       0.0000   XYYZ       0.0000   YYYZ       0.0000
      XXZZ     -32.3178   XYZZ      -0.0000   YYZZ     -32.3178
      XZZZ       0.0000   YZZZ       0.0000   ZZZZ    -149.0224
 -----------------------------------------------------------------
 Total job time:  59.92s(wall), 53.10s(cpu) 
 Mon Jun 30 11:33:35 2025

        *************************************************************
        *                                                           *
        *  Thank you very much for using Q-Chem.  Have a nice day.  *
        *                                                           *
        *************************************************************


